
                           ***********************       
                           *  WELCOME TO SIESTA  *       
                           ***********************       

reinit: Reading from standard input
reinit: Dumped input in INPUT_TMP.85237
************************** Dump of input data file ****************************
SystemName  em
SystemLabel em
==================================================
==================================================
# SPECIES AND BASIS
# Number of species
NumberOfSpecies 5
%block ChemicalSpeciesLabel
  1   79  Au
  2    7  N
  3    6  C
  4    1  H
  5    8  O
%endblock ChemicalSpeciesLabel
%block    PAO.BasisSizes
  Au        SZ
   N        DZP
   C        DZP
   H        DZP
   O        DZP
%endblock PAO.BasisSizes
%block PS.lmax
  Au  2
%endblock PS.lmax
==================================================
==================================================
# K-points
%block kgrid_Monkhorst_Pack
3   0   0   0.0
0   3   0   0.0
0   0   3   0.0
%endblock kgrid_Monkhorst_Pack
T CELL AND ATOMIC POSITIONS
==================================================
==================================================
# UNIT CELL AND ATOMIC POSITIONS
# UNIT CELL
LatticeConstant       1.00 Ang
%block LatticeVectors
30.00000000   0.00000000000   0.0000000000
0.000000000   30.0000000000   0.0000000000
0.000000000   0.00000000000  97.4717069000
%endblock LatticeVectors
# Atomic coordinates
NumberOfAtoms 202
AtomicCoordinatesFormat ScaledCartesian
%block AtomicCoordinatesAndAtomicSpecies < ../em.fdf
==================================================
==================================================
# General variables
#ElectronicTemperature  100 K
MeshCutoff           350. Ry
xc.functional         LDA           # Exchange-correlation functional
xc.authors            CA
SpinPolarized .true.
SpinOrbit     .true.
SolutionMethod diagon
#SolutionMethod Transiesta
NetCharge		0
==================================================
==================================================
# SCF variables
DM.MixSCF1   T
MaxSCFIterations      300           # Maximum number of SCF iter
DM.MixingWeight       0.03          # New DM amount for next SCF cycle
DM.Tolerance          1.d-4         # Tolerance in maximum difference
DM.UseSaveDM          true          # to use continuation files
DM.NumberPulay         5
Diag.DivideAndConquer  no
Diag.ParallelOverK     yes
==================================================
==================================================
# MD variables
MD.FinalTimeStep 1
MD.TypeOfRun CG
MD.NumCGsteps     000
MD.UseSaveXV      .true.
==================================================
==================================================
# Output variables
WriteMullikenPop                1
WriteBands                      .false.
SaveRho                         .false.
SaveDeltaRho                    .false.
SaveHS                          .true.
SaveElectrostaticPotential      True
SaveTotalPotential              no
WriteCoorXmol                   .true.
WriteMDXmol                     .true.
WriteMDhistory                  .false.
WriteEigenvalues                yes
==================================================
==================================================
# Transiesta information
# GF OPTIONS
TS.ComplexContour.Emin    -30.0 eV
TS.ComplexContour.NPoles       10
TS.ComplexContour.NCircle      30
TS.ComplexContour.NLine        10
# BIAS OPTIONS
TS.biasContour.NumPoints       00
# TS OPTIONS
TS.Voltage 0.000000 eV
# TBT OPTIONS
TS.TBT.Emin -5.0 eV
TS.TBT.Emax +5.0 eV
TS.TBT.NPoints 500
TS.TBT.NEigen 3
TS.TBT.Eta        0.000001 Ry
# Write hamiltonian
TS.SaveHS   .true.
# LEFT ELECTRODE
TS.HSFileLeft  ./Au_Elec_ABC.TSHS
#TS.ReplicateA1Left    1
#TS.ReplicateA2Left    1
TS.NumUsedAtomsLeft    9
TS.BufferAtomsLeft     0
# RIGHT ELECTRODE
TS.HSFileRight  ./Au_Elec_ABC.TSHS
#TS.ReplicateA1Right   1
#TS.ReplicateA2Right   1
TS.NumUsedAtomsRight   9
TS.BufferAtomsRight    0
==================================================
==================================================
************************** End of input data file *****************************

reinit: -----------------------------------------------------------------------
reinit: System Name: em
reinit: -----------------------------------------------------------------------
reinit: System Label: em
reinit: -----------------------------------------------------------------------
Siesta Version: siesta-4.1--736
Architecture  : unknown
Compiler flags: gfortran -O2 -fPIC -ftree-vectorize -fallow-argument-mismatch
PP flags      : -DFC_HAVE_ABORT
Libraries     : libsiestaLAPACK.a libsiestaBLAS.a
SERIAL version

* Running in serial mode
>> Start of run:  23-JAN-2024  16:13:25

initatom: Reading input for the pseudopotentials and atomic orbitals ----------
Species number:   1 Atomic number:   79 Label: Au
Species number:   2 Atomic number:    7 Label: N
Species number:   3 Atomic number:    6 Label: C
Species number:   4 Atomic number:    1 Label: H
Species number:   5 Atomic number:    8 Label: O

Ground state valence configuration:   6s01  5d10
Reading pseudopotential information in formatted form from Au.psf

Pseudopotential generated from a relativistic atomic calculation
There are spin-orbit pseudopotentials available
Spin-orbit interaction is not included in this calculation

Valence configuration for pseudopotential generation:
6s( 1.00) rc: 2.60
6p( 0.00) rc: 2.77
5d(10.00) rc: 2.60
5f( 0.00) rc: 2.60
Ground state valence configuration:   2s02  2p03
Reading pseudopotential information in formatted form from N.psf

Pseudopotential generated from a relativistic atomic calculation
There are spin-orbit pseudopotentials available
Spin-orbit interaction is not included in this calculation

Valence configuration for pseudopotential generation:
2s( 2.00) rc: 1.48
2p( 3.00) rc: 1.48
3d( 0.00) rc: 1.48
4f( 0.00) rc: 1.48
Ground state valence configuration:   2s02  2p02
Reading pseudopotential information in formatted form from C.psf

Pseudopotential generated from a relativistic atomic calculation
There are spin-orbit pseudopotentials available
Spin-orbit interaction is not included in this calculation

Valence configuration for pseudopotential generation:
2s( 2.00) rc: 1.54
2p( 2.00) rc: 1.54
3d( 0.00) rc: 1.54
4f( 0.00) rc: 1.54
Ground state valence configuration:   1s01
Reading pseudopotential information in formatted form from H.psf

Pseudopotential generated from a relativistic atomic calculation
There are spin-orbit pseudopotentials available
Spin-orbit interaction is not included in this calculation

Valence configuration for pseudopotential generation:
1s( 1.00) rc: 1.31
2p( 0.00) rc: 1.31
3d( 0.00) rc: 0.37
4f( 0.00) rc: 1.31
Ground state valence configuration:   2s02  2p04
Reading pseudopotential information in formatted form from O.psf

Pseudopotential generated from a relativistic atomic calculation
There are spin-orbit pseudopotentials available
Spin-orbit interaction is not included in this calculation

Valence configuration for pseudopotential generation:
2s( 2.00) rc: 1.47
2p( 4.00) rc: 1.47
3d( 0.00) rc: 1.47
4f( 0.00) rc: 1.47
resizes: Read basis size for species Au = sz                  
resizes: Read basis size for species N = dzp                 
resizes: Read basis size for species C = dzp                 
resizes: Read basis size for species H = dzp                 
resizes: Read basis size for species O = dzp                 
relmxkb: Read Max KB Ang. Momentum=    2 for species Au
For N, standard SIESTA heuristics set lmxkb to 3
 (one more than the basis l, including polarization orbitals).
Use PS.lmax or PS.KBprojectors blocks to override.
For C, standard SIESTA heuristics set lmxkb to 3
 (one more than the basis l, including polarization orbitals).
Use PS.lmax or PS.KBprojectors blocks to override.
For H, standard SIESTA heuristics set lmxkb to 2
 (one more than the basis l, including polarization orbitals).
Use PS.lmax or PS.KBprojectors blocks to override.
For O, standard SIESTA heuristics set lmxkb to 3
 (one more than the basis l, including polarization orbitals).
Use PS.lmax or PS.KBprojectors blocks to override.

<basis_specs>
===============================================================================
Au                   Z=  79    Mass=  196.97        Charge= 0.17977+309
Lmxo=2 Lmxkb= 2    BasisType=split      Semic=F
L=0  Nsemic=0  Cnfigmx=6
          n=1  nzeta=1  polorb=0
            splnorm:   0.15000    
               vcte:    0.0000    
               rinn:    0.0000    
               qcoe:    0.0000    
               qyuk:    0.0000    
               qwid:   0.10000E-01
                rcs:    0.0000    
            lambdas:    1.0000    
L=1  Nsemic=0  Cnfigmx=6
L=2  Nsemic=0  Cnfigmx=5
          n=1  nzeta=1  polorb=0
            splnorm:   0.15000    
               vcte:    0.0000    
               rinn:    0.0000    
               qcoe:    0.0000    
               qyuk:    0.0000    
               qwid:   0.10000E-01
                rcs:    0.0000    
            lambdas:    1.0000    
-------------------------------------------------------------------------------
L=0  Nkbl=1  erefs: 0.17977+309
L=1  Nkbl=1  erefs: 0.17977+309
L=2  Nkbl=1  erefs: 0.17977+309
===============================================================================
</basis_specs>

atom: Called for Au                    (Z =  79)

read_vps: Pseudopotential generation method:
read_vps: ATM4.2.7  Troullier-Martins                       
Total valence charge:   11.00000

xc_check: Exchange-correlation functional:
xc_check: Ceperley-Alder
V l=0 = -2*Zval/r beyond r=  3.7361
V l=1 = -2*Zval/r beyond r=  3.7361
V l=2 = -2*Zval/r beyond r=  3.7361
All V_l potentials equal beyond r=  2.6994
This should be close to max(r_c) in ps generation
All pots = -2*Zval/r beyond r=  3.7361
Using large-core scheme for Vlocal

atom: Estimated core radius    3.73611

atom: Including non-local core corrections could be a good idea
atom: Maximum radius for 4*pi*r*r*local-pseudopot. charge    4.07775
atom: Maximum radius for r*vlocal+2*Zval:    3.78310
GHOST: No ghost state for L =  0
GHOST: No ghost state for L =  1
GHOST: No ghost state for L =  2

KBgen: Kleinman-Bylander projectors: 
   l= 0   rc=  2.802581   el= -0.445644   Ekb=  3.908625   kbcos=  0.222548
   l= 1   rc=  2.802581   el= -0.066825   Ekb=  1.555330   kbcos=  0.234902
   l= 2   rc=  2.767767   el= -0.526351   Ekb= -5.977941   kbcos= -0.723482

KBgen: Total number of  Kleinman-Bylander projectors:    9
atom: -------------------------------------------------------------------------

atom: SANKEY-TYPE ORBITALS:

SPLIT: Orbitals with angular momentum L= 0

SPLIT: Basis orbitals for state 6s

SPLIT: PAO cut-off radius determined from an
SPLIT: energy shift=  0.020000 Ry

   izeta = 1
                 lambda =    1.000000
                     rc =    6.083298
                 energy =   -0.427287
                kinetic =    0.392598
    potential(screened) =   -0.819885
       potential(ionic) =   -8.596164

SPLIT: Orbitals with angular momentum L= 2

SPLIT: Basis orbitals for state 5d

SPLIT: PAO cut-off radius determined from an
SPLIT: energy shift=  0.020000 Ry

   izeta = 1
                 lambda =    1.000000
                     rc =    4.286818
                 energy =   -0.508109
                kinetic =    4.851847
    potential(screened) =   -5.359956
       potential(ionic) =  -16.120163
atom: Total number of Sankey-type orbitals:  6

atm_pop: Valence configuration (for local Pseudopot. screening):
 6s( 1.00)                                                            
 6p( 0.00)                                                            
 5d(10.00)                                                            
Vna: chval, zval:   11.00000  11.00000

Vna:  Cut-off radius for the neutral-atom potential:   6.083298

atom: _________________________________________________________________________

<basis_specs>
===============================================================================
N                    Z=   7    Mass=  14.010        Charge= 0.17977+309
Lmxo=1 Lmxkb= 3    BasisType=split      Semic=F
L=0  Nsemic=0  Cnfigmx=2
          n=1  nzeta=2  polorb=0
            splnorm:   0.15000    
               vcte:    0.0000    
               rinn:    0.0000    
               qcoe:    0.0000    
               qyuk:    0.0000    
               qwid:   0.10000E-01
                rcs:    0.0000      0.0000    
            lambdas:    1.0000      1.0000    
L=1  Nsemic=0  Cnfigmx=2
          n=1  nzeta=2  polorb=1
            splnorm:   0.15000    
               vcte:    0.0000    
               rinn:    0.0000    
               qcoe:    0.0000    
               qyuk:    0.0000    
               qwid:   0.10000E-01
                rcs:    0.0000      0.0000    
            lambdas:    1.0000      1.0000    
-------------------------------------------------------------------------------
L=0  Nkbl=1  erefs: 0.17977+309
L=1  Nkbl=1  erefs: 0.17977+309
L=2  Nkbl=1  erefs: 0.17977+309
L=3  Nkbl=1  erefs: 0.17977+309
===============================================================================
</basis_specs>

atom: Called for N                     (Z =   7)

read_vps: Pseudopotential generation method:
read_vps: ATM4.2.7  Troullier-Martins                       
Total valence charge:    5.00000

xc_check: Exchange-correlation functional:
xc_check: Ceperley-Alder
V l=0 = -2*Zval/r beyond r=  1.4606
V l=1 = -2*Zval/r beyond r=  1.4606
V l=2 = -2*Zval/r beyond r=  1.4606
V l=3 = -2*Zval/r beyond r=  1.4606
All V_l potentials equal beyond r=  1.4606
This should be close to max(r_c) in ps generation
All pots = -2*Zval/r beyond r=  1.4606

VLOCAL1: 99.0% of the norm of Vloc inside     20.347 Ry
VLOCAL1: 99.9% of the norm of Vloc inside     46.372 Ry
atom: Maximum radius for 4*pi*r*r*local-pseudopot. charge    1.76189
atom: Maximum radius for r*vlocal+2*Zval:    1.53550
GHOST: No ghost state for L =  0
GHOST: No ghost state for L =  1
GHOST: No ghost state for L =  2
GHOST: No ghost state for L =  3

KBgen: Kleinman-Bylander projectors: 
   l= 0   rc=  1.675947   el= -1.353297   Ekb=  4.892109   kbcos=  0.337655
   l= 1   rc=  1.655124   el= -0.532333   Ekb= -5.549267   kbcos= -0.433001
   l= 2   rc=  2.047085   el=  0.002346   Ekb= -1.340614   kbcos= -0.007544
   l= 3   rc=  2.348881   el=  0.003449   Ekb= -0.558194   kbcos= -0.000959

KBgen: Total number of  Kleinman-Bylander projectors:   16
atom: -------------------------------------------------------------------------

atom: SANKEY-TYPE ORBITALS:
atom: Selected multiple-zeta basis: split     

SPLIT: Orbitals with angular momentum L= 0

SPLIT: Basis orbitals for state 2s

SPLIT: PAO cut-off radius determined from an
SPLIT: energy shift=  0.020000 Ry

   izeta = 1
                 lambda =    1.000000
                     rc =    3.683980
                 energy =   -1.334887
                kinetic =    1.204128
    potential(screened) =   -2.539016
       potential(ionic) =   -8.130297

   izeta = 2
                 rmatch =    2.905100
              splitnorm =    0.150000
                 energy =   -1.140084
                kinetic =    1.810869
    potential(screened) =   -2.950953
       potential(ionic) =   -8.949068

SPLIT: Orbitals with angular momentum L= 1

SPLIT: Basis orbitals for state 2p

SPLIT: PAO cut-off radius determined from an
SPLIT: energy shift=  0.020000 Ry

   izeta = 1
                 lambda =    1.000000
                     rc =    4.280232
                 energy =   -0.512164
                kinetic =    3.599466
    potential(screened) =   -4.111630
       potential(ionic) =   -9.551775

   izeta = 2
                 rmatch =    2.941647
              splitnorm =    0.150000
                 energy =   -0.291934
                kinetic =    5.358713
    potential(screened) =   -5.650647
       potential(ionic) =  -11.695624

POLgen: Perturbative polarization orbital with L=  2

POLgen: Polarization orbital for state 2p

   izeta = 1
                     rc =    4.280232
                 energy =    1.826318
                kinetic =    3.687078
    potential(screened) =   -1.860760
       potential(ionic) =   -6.363680
atom: Total number of Sankey-type orbitals: 13

atm_pop: Valence configuration (for local Pseudopot. screening):
 2s( 2.00)                                                            
 2p( 3.00)                                                            
Vna: chval, zval:    5.00000   5.00000

Vna:  Cut-off radius for the neutral-atom potential:   4.280232

atom: _________________________________________________________________________

<basis_specs>
===============================================================================
C                    Z=   6    Mass=  12.010        Charge= 0.17977+309
Lmxo=1 Lmxkb= 3    BasisType=split      Semic=F
L=0  Nsemic=0  Cnfigmx=2
          n=1  nzeta=2  polorb=0
            splnorm:   0.15000    
               vcte:    0.0000    
               rinn:    0.0000    
               qcoe:    0.0000    
               qyuk:    0.0000    
               qwid:   0.10000E-01
                rcs:    0.0000      0.0000    
            lambdas:    1.0000      1.0000    
L=1  Nsemic=0  Cnfigmx=2
          n=1  nzeta=2  polorb=1
            splnorm:   0.15000    
               vcte:    0.0000    
               rinn:    0.0000    
               qcoe:    0.0000    
               qyuk:    0.0000    
               qwid:   0.10000E-01
                rcs:    0.0000      0.0000    
            lambdas:    1.0000      1.0000    
-------------------------------------------------------------------------------
L=0  Nkbl=1  erefs: 0.17977+309
L=1  Nkbl=1  erefs: 0.17977+309
L=2  Nkbl=1  erefs: 0.17977+309
L=3  Nkbl=1  erefs: 0.17977+309
===============================================================================
</basis_specs>

atom: Called for C                     (Z =   6)

read_vps: Pseudopotential generation method:
read_vps: ATM4.2.7  Troullier-Martins                       
Total valence charge:    4.00000

xc_check: Exchange-correlation functional:
xc_check: Ceperley-Alder
V l=0 = -2*Zval/r beyond r=  1.5227
V l=1 = -2*Zval/r beyond r=  1.5227
V l=2 = -2*Zval/r beyond r=  1.5227
V l=3 = -2*Zval/r beyond r=  1.5038
All V_l potentials equal beyond r=  1.5227
This should be close to max(r_c) in ps generation
All pots = -2*Zval/r beyond r=  1.5227

VLOCAL1: 99.0% of the norm of Vloc inside     18.722 Ry
VLOCAL1: 99.9% of the norm of Vloc inside     42.668 Ry
atom: Maximum radius for 4*pi*r*r*local-pseudopot. charge    1.83678
atom: Maximum radius for r*vlocal+2*Zval:    1.58088
GHOST: No ghost state for L =  0
GHOST: No ghost state for L =  1
GHOST: No ghost state for L =  2
GHOST: No ghost state for L =  3

KBgen: Kleinman-Bylander projectors: 
   l= 0   rc=  1.769164   el= -1.002383   Ekb=  4.944706   kbcos=  0.320005
   l= 1   rc=  1.769164   el= -0.398438   Ekb= -4.111874   kbcos= -0.367023
   l= 2   rc=  2.107589   el=  0.002326   Ekb= -1.050436   kbcos= -0.009341
   l= 3   rc=  2.358593   el=  0.003420   Ekb= -0.444500   kbcos= -0.001214

KBgen: Total number of  Kleinman-Bylander projectors:   16
atom: -------------------------------------------------------------------------

atom: SANKEY-TYPE ORBITALS:
atom: Selected multiple-zeta basis: split     

SPLIT: Orbitals with angular momentum L= 0

SPLIT: Basis orbitals for state 2s

SPLIT: PAO cut-off radius determined from an
SPLIT: energy shift=  0.020000 Ry

   izeta = 1
                 lambda =    1.000000
                     rc =    4.191849
                 energy =   -0.984359
                kinetic =    0.881234
    potential(screened) =   -1.865594
       potential(ionic) =   -5.477335

   izeta = 2
                 rmatch =    3.431921
              splitnorm =    0.150000
                 energy =   -0.853663
                kinetic =    1.298382
    potential(screened) =   -2.152045
       potential(ionic) =   -5.997528

SPLIT: Orbitals with angular momentum L= 1

SPLIT: Basis orbitals for state 2p

SPLIT: PAO cut-off radius determined from an
SPLIT: energy shift=  0.020000 Ry

   izeta = 1
                 lambda =    1.000000
                     rc =    4.870301
                 energy =   -0.378923
                kinetic =    2.540340
    potential(screened) =   -2.919263
       potential(ionic) =   -6.428536

   izeta = 2
                 rmatch =    3.475094
              splitnorm =    0.150000
                 energy =   -0.214881
                kinetic =    3.815219
    potential(screened) =   -4.030100
       potential(ionic) =   -7.921348

POLgen: Perturbative polarization orbital with L=  2

POLgen: Polarization orbital for state 2p

   izeta = 1
                     rc =    4.870301
                 energy =    1.281120
                kinetic =    2.631157
    potential(screened) =   -1.350037
       potential(ionic) =   -4.295491
atom: Total number of Sankey-type orbitals: 13

atm_pop: Valence configuration (for local Pseudopot. screening):
 2s( 2.00)                                                            
 2p( 2.00)                                                            
Vna: chval, zval:    4.00000   4.00000

Vna:  Cut-off radius for the neutral-atom potential:   4.870301

atom: _________________________________________________________________________

<basis_specs>
===============================================================================
H                    Z=   1    Mass=  1.0100        Charge= 0.17977+309
Lmxo=0 Lmxkb= 2    BasisType=split      Semic=F
L=0  Nsemic=0  Cnfigmx=1
          n=1  nzeta=2  polorb=1
            splnorm:   0.15000    
               vcte:    0.0000    
               rinn:    0.0000    
               qcoe:    0.0000    
               qyuk:    0.0000    
               qwid:   0.10000E-01
                rcs:    0.0000      0.0000    
            lambdas:    1.0000      1.0000    
-------------------------------------------------------------------------------
L=0  Nkbl=1  erefs: 0.17977+309
L=1  Nkbl=1  erefs: 0.17977+309
L=2  Nkbl=1  erefs: 0.17977+309
===============================================================================
</basis_specs>

atom: Called for H                     (Z =   1)

read_vps: Pseudopotential generation method:
read_vps: ATM4.2.7  Troullier-Martins                       
Total valence charge:    1.00000

xc_check: Exchange-correlation functional:
xc_check: Ceperley-Alder
V l=0 = -2*Zval/r beyond r=  1.2977
V l=1 = -2*Zval/r beyond r=  1.2815
V l=2 = -2*Zval/r beyond r=  1.1307
All V_l potentials equal beyond r=  1.2977
This should be close to max(r_c) in ps generation
All pots = -2*Zval/r beyond r=  1.2977

VLOCAL1: 99.0% of the norm of Vloc inside     25.776 Ry
VLOCAL1: 99.9% of the norm of Vloc inside     58.745 Ry
atom: Maximum radius for 4*pi*r*r*local-pseudopot. charge    1.52711
atom: Maximum radius for r*vlocal+2*Zval:    1.28155
GHOST: No ghost state for L =  0
GHOST: No ghost state for L =  1
GHOST: No ghost state for L =  2

KBgen: Kleinman-Bylander projectors: 
   l= 0   rc=  1.452513   el= -0.467311   Ekb= -1.940806   kbcos= -0.353010
   l= 1   rc=  1.752576   el=  0.001430   Ekb= -0.484365   kbcos= -0.024070
   l= 2   rc=  1.774652   el=  0.002365   Ekb= -0.503986   kbcos= -0.001615

KBgen: Total number of  Kleinman-Bylander projectors:    9
atom: -------------------------------------------------------------------------

atom: SANKEY-TYPE ORBITALS:
atom: Selected multiple-zeta basis: split     

SPLIT: Orbitals with angular momentum L= 0

SPLIT: Basis orbitals for state 1s

SPLIT: PAO cut-off radius determined from an
SPLIT: energy shift=  0.020000 Ry

   izeta = 1
                 lambda =    1.000000
                     rc =    4.828263
                 energy =   -0.449360
                kinetic =    0.925772
    potential(screened) =   -1.375132
       potential(ionic) =   -1.911259

   izeta = 2
                 rmatch =    3.854947
              splitnorm =    0.150000
                 energy =   -0.336131
                kinetic =    1.498125
    potential(screened) =   -1.834256
       potential(ionic) =   -2.406171

POLgen: Perturbative polarization orbital with L=  1

POLgen: Polarization orbital for state 1s

   izeta = 1
                     rc =    4.828263
                 energy =    0.707058
                kinetic =    1.398648
    potential(screened) =   -0.691590
       potential(ionic) =   -1.171958
atom: Total number of Sankey-type orbitals:  5

atm_pop: Valence configuration (for local Pseudopot. screening):
 1s( 1.00)                                                            
Vna: chval, zval:    1.00000   1.00000

Vna:  Cut-off radius for the neutral-atom potential:   4.828263

atom: _________________________________________________________________________

<basis_specs>
===============================================================================
O                    Z=   8    Mass=  16.000        Charge= 0.17977+309
Lmxo=1 Lmxkb= 3    BasisType=split      Semic=F
L=0  Nsemic=0  Cnfigmx=2
          n=1  nzeta=2  polorb=0
            splnorm:   0.15000    
               vcte:    0.0000    
               rinn:    0.0000    
               qcoe:    0.0000    
               qyuk:    0.0000    
               qwid:   0.10000E-01
                rcs:    0.0000      0.0000    
            lambdas:    1.0000      1.0000    
L=1  Nsemic=0  Cnfigmx=2
          n=1  nzeta=2  polorb=1
            splnorm:   0.15000    
               vcte:    0.0000    
               rinn:    0.0000    
               qcoe:    0.0000    
               qyuk:    0.0000    
               qwid:   0.10000E-01
                rcs:    0.0000      0.0000    
            lambdas:    1.0000      1.0000    
-------------------------------------------------------------------------------
L=0  Nkbl=1  erefs: 0.17977+309
L=1  Nkbl=1  erefs: 0.17977+309
L=2  Nkbl=1  erefs: 0.17977+309
L=3  Nkbl=1  erefs: 0.17977+309
===============================================================================
</basis_specs>

atom: Called for O                     (Z =   8)

read_vps: Pseudopotential generation method:
read_vps: ATM4.2.7  Troullier-Martins                       
Total valence charge:    6.00000

xc_check: Exchange-correlation functional:
xc_check: Ceperley-Alder
V l=0 = -2*Zval/r beyond r=  1.4482
V l=1 = -2*Zval/r beyond r=  1.4482
V l=2 = -2*Zval/r beyond r=  1.4482
V l=3 = -2*Zval/r beyond r=  1.4482
All V_l potentials equal beyond r=  1.4482
This should be close to max(r_c) in ps generation
All pots = -2*Zval/r beyond r=  1.4482

VLOCAL1: 99.0% of the norm of Vloc inside     20.696 Ry
VLOCAL1: 99.9% of the norm of Vloc inside     47.167 Ry
atom: Maximum radius for 4*pi*r*r*local-pseudopot. charge    1.74697
atom: Maximum radius for r*vlocal+2*Zval:    1.52250
GHOST: No ghost state for L =  0
GHOST: No ghost state for L =  1
GHOST: No ghost state for L =  2
GHOST: No ghost state for L =  3

KBgen: Kleinman-Bylander projectors: 
   l= 0   rc=  1.682657   el= -1.744568   Ekb=  4.448678   kbcos=  0.289593
   l= 1   rc=  1.620715   el= -0.676113   Ekb= -7.152049   kbcos= -0.499084
   l= 2   rc=  2.055271   el=  0.002386   Ekb= -1.611701   kbcos= -0.006652
   l= 3   rc=  2.358267   el=  0.003508   Ekb= -0.656031   kbcos= -0.000879

KBgen: Total number of  Kleinman-Bylander projectors:   16
atom: -------------------------------------------------------------------------

atom: SANKEY-TYPE ORBITALS:
atom: Selected multiple-zeta basis: split     

SPLIT: Orbitals with angular momentum L= 0

SPLIT: Basis orbitals for state 2s

SPLIT: PAO cut-off radius determined from an
SPLIT: energy shift=  0.020000 Ry

   izeta = 1
                 lambda =    1.000000
                     rc =    3.305093
                 energy =   -1.725984
                kinetic =    1.585887
    potential(screened) =   -3.311870
       potential(ionic) =  -11.297253

   izeta = 2
                 rmatch =    2.510382
              splitnorm =    0.150000
                 energy =   -1.479369
                kinetic =    2.381175
    potential(screened) =   -3.860544
       potential(ionic) =  -12.454987

SPLIT: Orbitals with angular momentum L= 1

SPLIT: Basis orbitals for state 2p

SPLIT: PAO cut-off radius determined from an
SPLIT: energy shift=  0.020000 Ry

   izeta = 1
                 lambda =    1.000000
                     rc =    3.937239
                 energy =   -0.658357
                kinetic =    4.694922
    potential(screened) =   -5.353279
       potential(ionic) =  -13.084446

   izeta = 2
                 rmatch =    2.541963
              splitnorm =    0.150000
                 energy =   -0.362807
                kinetic =    7.020572
    potential(screened) =   -7.383379
       potential(ionic) =  -16.009048

POLgen: Perturbative polarization orbital with L=  2

POLgen: Polarization orbital for state 2p

   izeta = 1
                     rc =    3.937239
                 energy =    2.394886
                kinetic =    4.807985
    potential(screened) =   -2.413099
       potential(ionic) =   -8.736318
atom: Total number of Sankey-type orbitals: 13

atm_pop: Valence configuration (for local Pseudopot. screening):
 2s( 2.00)                                                            
 2p( 4.00)                                                            
Vna: chval, zval:    6.00000   6.00000

Vna:  Cut-off radius for the neutral-atom potential:   3.937239

atom: _________________________________________________________________________

prinput: Basis input ----------------------------------------------------------

PAO.BasisType split     

%block ChemicalSpeciesLabel
    1   79 Au                      # Species index, atomic number, species label
    2    7 N                       # Species index, atomic number, species label
    3    6 C                       # Species index, atomic number, species label
    4    1 H                       # Species index, atomic number, species label
    5    8 O                       # Species index, atomic number, species label
%endblock ChemicalSpeciesLabel

%block PAO.Basis                 # Define Basis set
Au                    2                    # Species label, number of l-shells
 n=6   0   1                         # n, l, Nzeta 
   6.083   
   1.000   
 n=5   2   1                         # n, l, Nzeta 
   4.287   
   1.000   
N                     2                    # Species label, number of l-shells
 n=2   0   2                         # n, l, Nzeta 
   3.684      2.905   
   1.000      1.000   
 n=2   1   2 P   1                   # n, l, Nzeta, Polarization, NzetaPol
   4.280      2.942   
   1.000      1.000   
C                     2                    # Species label, number of l-shells
 n=2   0   2                         # n, l, Nzeta 
   4.192      3.432   
   1.000      1.000   
 n=2   1   2 P   1                   # n, l, Nzeta, Polarization, NzetaPol
   4.870      3.475   
   1.000      1.000   
H                     1                    # Species label, number of l-shells
 n=1   0   2 P   1                   # n, l, Nzeta, Polarization, NzetaPol
   4.828      3.855   
   1.000      1.000   
O                     2                    # Species label, number of l-shells
 n=2   0   2                         # n, l, Nzeta 
   3.305      2.510   
   1.000      1.000   
 n=2   1   2 P   1                   # n, l, Nzeta, Polarization, NzetaPol
   3.937      2.542   
   1.000      1.000   
%endblock PAO.Basis

prinput: ----------------------------------------------------------------------

coor:   Atomic-coordinates input format  =     Cartesian coordinates
coor:                                          (in units of alat)

siesta: WARNING: XV file not found

siesta: Atomic coordinates (Bohr) and species
siesta:      2.71925   2.71925   0.00000  1        1
siesta:      8.15774   2.71925   0.00000  1        2
siesta:      8.15774   8.15774   0.00000  1        3
siesta:      2.71925   8.15774   0.00000  1        4
siesta:      5.43849   0.00000   3.84559  1        5
siesta:      5.43849   5.43849   3.84559  1        6
siesta:      2.71925   2.71925   7.69119  1        7
siesta:      8.15774   2.71925   7.69119  1        8
siesta:     10.87698   5.43849   3.84559  1        9
siesta:      8.15774   8.15774   7.69119  1       10
siesta:      0.00000   5.43849   3.84559  1       11
siesta:      2.71925   8.15774   7.69119  1       12
siesta:      5.43849  10.87698   3.84559  1       13
siesta:      5.43849   0.00000  11.53678  1       14
siesta:      5.43849   5.43849  11.53678  1       15
siesta:      2.71925   2.71925  15.38238  1       16
siesta:      8.15774   2.71925  15.38238  1       17
siesta:     10.87698   5.43849  11.53678  1       18
siesta:      8.15774   8.15774  15.38238  1       19
siesta:      0.00000   5.43849  11.53678  1       20
siesta:      2.71925   8.15774  15.38238  1       21
siesta:      5.43849  10.87698  11.53678  1       22
siesta:      5.43849   0.00000  19.22797  1       23
siesta:      5.43849   5.43849  19.22797  1       24
siesta:     10.87698   5.43849  19.22797  1       25
siesta:      0.00000   5.43849  19.22797  1       26
siesta:      5.43849  10.87698  19.22797  1       27
siesta:      2.71925   2.71925  23.07357  1       28
siesta:      8.15774   2.71925  23.07357  1       29
siesta:      8.15774   8.15774  23.07357  1       30
siesta:      2.71925   8.15774  23.07357  1       31
siesta:      5.43849   0.00000  26.91916  1       32
siesta:      5.43849   5.43849  26.91916  1       33
siesta:      2.71925   2.71925  30.76475  1       34
siesta:      8.15774   2.71925  30.76475  1       35
siesta:     10.87698   5.43849  26.91916  1       36
siesta:      8.15774   8.15774  30.76475  1       37
siesta:      0.00000   5.43849  26.91916  1       38
siesta:      2.71925   8.15774  30.76475  1       39
siesta:      5.43849  10.87698  26.91916  1       40
siesta:      5.43849   0.00000  34.61035  1       41
siesta:      5.43849   5.43849  34.61035  1       42
siesta:      2.71925   2.71925  38.45594  1       43
siesta:      8.15774   2.71925  38.45594  1       44
siesta:     10.87698   5.43849  34.61035  1       45
siesta:      8.15774   8.15774  38.45594  1       46
siesta:      0.00000   5.43849  34.61035  1       47
siesta:      2.71925   8.15774  38.45594  1       48
siesta:      5.43849  10.87698  34.61035  1       49
siesta:      5.43849   0.00000  42.30154  1       50
siesta:      5.43849   5.43849  42.30154  1       51
siesta:     10.87698   5.43849  42.30154  1       52
siesta:      0.00000   5.43849  42.30154  1       53
siesta:      5.43849  10.87698  42.30154  1       54
siesta:      2.71925   2.71925  46.14713  1       55
siesta:      8.15774   2.71925  46.14713  1       56
siesta:      8.15774   8.15774  46.14713  1       57
siesta:      2.71925   8.15774  46.14713  1       58
siesta:      5.43849   5.43849  49.99272  1       59
siesta:      3.69204   6.76493  81.69734  4       60
siesta:      4.91434   5.50224  82.45167  2       61
siesta:      5.43849   5.43849  86.46107  1       62
siesta:      6.71345   4.11737  80.88045  3       63
siesta:      7.86601   5.46552  79.81518  4       64
siesta:      5.38925   2.51427  78.85580  3       65
siesta:      6.35661   2.25913  76.74458  5       66
siesta:      8.43026   2.46829  82.53261  3       67
siesta:      9.77863   1.45504  81.33986  4       68
siesta:      9.49681   3.64642  83.85663  4       69
siesta:      7.33169   1.08262  83.60679  4       70
siesta:      3.20178   1.36999  79.51485  2       71
siesta:      2.50887   1.63402  81.27952  4       72
siesta:      1.80651  -0.20099  77.72898  3       73
siesta:      3.10752  -1.58257  76.91116  4       74
siesta:      0.81236   1.33493  75.46119  3       75
siesta:      0.68110   0.34941  73.34627  5       76
siesta:     -0.35925  -1.58140  79.06704  3       77
siesta:     -1.37755  -2.75667  77.70688  4       78
siesta:      0.38551  -2.80557  80.55825  4       79
siesta:     -1.69911  -0.24493  79.90506  4       80
siesta:      0.02115   3.71703  75.94617  2       81
siesta:      0.47557   4.51947  77.62828  4       82
siesta:     -0.81691   5.39772  73.92560  3       83
siesta:     -2.13899   4.35442  72.73250  4       84
siesta:      1.37337   6.13433  72.15325  3       85
siesta:      1.04412   6.22197  69.83934  5       86
siesta:     -2.12250   7.73414  75.03490  3       87
siesta:     -2.69401   9.00969  73.51210  4       88
siesta:     -3.81268   7.16936  76.08444  4       89
siesta:     -0.85546   8.75031  76.31532  4       90
siesta:      3.61328   6.66907  73.25596  2       91
siesta:      3.77175   6.61994  75.17080  4       92
siesta:      5.85113   7.22367  71.74040  3       93
siesta:      5.40980   8.75828  70.42790  4       94
siesta:      6.58997   4.97434  70.03629  3       95
siesta:      7.30912   5.32544  67.84562  5       96
siesta:      8.05447   8.00095  73.45183  3       97
siesta:      9.71942   8.41938  72.30085  4       98
siesta:      7.56554   9.69784  74.52970  4       99
siesta:      8.53002   6.48390  74.77530  4      100
siesta:      6.43879   2.64525  71.08971  2      101
siesta:      6.00740   2.45653  72.95502  4      102
siesta:      7.05415   0.39019  69.63071  3      103
siesta:      8.88999   0.65195  68.71542  4      104
siesta:      5.18905  -0.05146  67.43376  3      105
siesta:      5.93885  -0.83905  65.37352  5      106
siesta:      7.13877  -1.93035  71.36442  3      107
siesta:      7.62374  -3.61054  70.26260  4      108
siesta:      8.56565  -1.67803  72.84015  4      109
siesta:      5.30211  -2.23949  72.26574  4      110
siesta:      2.71357   0.39288  67.93045  2      111
siesta:      2.15584   0.88225  69.70436  4      112
siesta:      0.79538  -0.00714  65.99864  3      113
siesta:      1.12518  -1.83519  65.08934  4      114
siesta:      0.94318   1.93870  63.83733  3      115
siesta:      0.34392   1.35181  61.65973  5      116
siesta:     -1.85095   0.04176  67.18026  3      117
siesta:     -3.27502  -0.28674  65.71912  4      118
siesta:     -2.02526  -1.43021  68.62135  4      119
siesta:     -2.22081   1.87572  68.06402  4      120
siesta:      1.64594   4.31028  64.47523  2      121
siesta:      2.05647   4.74264  66.30187  4      122
siesta:      1.71233   6.31236  62.60017  3      123
siesta:     -0.16587   6.57315  61.77027  4      124
siesta:      3.53337   5.62532  60.45788  3      125
siesta:      5.62473   4.73088  60.74722  5      126
siesta:      2.58479   8.79453  63.89064  3      127
siesta:      1.32183   9.10540  65.50229  4      128
siesta:      4.47787   8.47016  64.66444  4      129
siesta:      2.57439  11.07545  62.16804  3      130
siesta:      4.80134  11.95001  61.03741  3      131
siesta:      6.57692  10.98722  61.41590  4      132
siesta:      0.32445  12.37917  61.64470  3      133
siesta:     -1.43247  11.75489  62.51031  4      134
siesta:      4.80003  14.04308  59.43222  3      135
siesta:      6.55377  14.69378  58.57968  4      136
siesta:      0.28716  14.46930  60.04748  3      137
siesta:     -1.45953  15.47353  59.65792  4      138
siesta:      2.53485  15.30934  58.93100  3      139
siesta:      2.39730  17.37555  57.38339  5      140
siesta:      4.07337  17.76450  56.74469  4      141
siesta:      2.58792   6.25828  58.18008  5      142
siesta:      5.43849   5.43849  55.43121  1      143
siesta:      5.43849   5.43849  91.89956  1      144
siesta:      2.71925   8.15774  95.74515  1      145
siesta:      8.15774   8.15774  95.74515  1      146
siesta:      8.15774   2.71925  95.74515  1      147
siesta:      2.71925   2.71925  95.74515  1      148
siesta:      5.43849  10.87698  99.59074  1      149
siesta:      0.00000   5.43849  99.59074  1      150
siesta:     10.87698   5.43849  99.59074  1      151
siesta:      5.43849   5.43849  99.59074  1      152
siesta:      5.43849   0.00000  99.59074  1      153
siesta:      5.43849  10.87698 107.28193  1      154
siesta:      2.71925   8.15774 103.43634  1      155
siesta:      0.00000   5.43849 107.28193  1      156
siesta:      8.15774   8.15774 103.43634  1      157
siesta:     10.87698   5.43849 107.28193  1      158
siesta:      8.15774   2.71925 103.43634  1      159
siesta:      2.71925   2.71925 103.43634  1      160
siesta:      5.43849   5.43849 107.28193  1      161
siesta:      5.43849   0.00000 107.28193  1      162
siesta:      5.43849  10.87698 114.97312  1      163
siesta:      2.71925   8.15774 111.12753  1      164
siesta:      0.00000   5.43849 114.97312  1      165
siesta:      8.15774   8.15774 111.12753  1      166
siesta:     10.87698   5.43849 114.97312  1      167
siesta:      8.15774   2.71925 111.12753  1      168
siesta:      2.71925   2.71925 111.12753  1      169
siesta:      5.43849   5.43849 114.97312  1      170
siesta:      5.43849   0.00000 114.97312  1      171
siesta:      2.71925   8.15774 118.81871  1      172
siesta:      8.15774   8.15774 118.81871  1      173
siesta:      8.15774   2.71925 118.81871  1      174
siesta:      2.71925   2.71925 118.81871  1      175
siesta:      5.43849  10.87698 122.66431  1      176
siesta:      0.00000   5.43849 122.66431  1      177
siesta:     10.87698   5.43849 122.66431  1      178
siesta:      5.43849   5.43849 122.66431  1      179
siesta:      5.43849   0.00000 122.66431  1      180
siesta:      5.43849  10.87698 130.35550  1      181
siesta:      2.71925   8.15774 126.50990  1      182
siesta:      0.00000   5.43849 130.35550  1      183
siesta:      8.15774   8.15774 126.50990  1      184
siesta:     10.87698   5.43849 130.35550  1      185
siesta:      8.15774   2.71925 126.50990  1      186
siesta:      2.71925   2.71925 126.50990  1      187
siesta:      5.43849   5.43849 130.35550  1      188
siesta:      5.43849   0.00000 130.35550  1      189
siesta:      5.43849  10.87698 138.04668  1      190
siesta:      2.71925   8.15774 134.20109  1      191
siesta:      0.00000   5.43849 138.04668  1      192
siesta:      8.15774   8.15774 134.20109  1      193
siesta:     10.87698   5.43849 138.04668  1      194
siesta:      8.15774   2.71925 134.20109  1      195
siesta:      2.71925   2.71925 134.20109  1      196
siesta:      5.43849   5.43849 138.04668  1      197
siesta:      5.43849   0.00000 138.04668  1      198
siesta:      2.71925   8.15774 141.89228  1      199
siesta:      8.15774   8.15774 141.89228  1      200
siesta:      8.15774   2.71925 141.89228  1      201
siesta:      2.71925   2.71925 141.89228  1      202

siesta: System type = molecule  

initatomlists: Number of atoms, orbitals, and projectors:    202  1474  2119

coxmol: Writing XMOL coordinates into file em.xyz                                                              

siesta: ******************** Simulation parameters ****************************
siesta:
siesta: The following are some of the parameters of the simulation.
siesta: A complete list of the parameters used, including default values,
siesta: can be found in file out.fdf
siesta:
redata: Spin configuration                          = spin-orbit
redata: Number of spin components                   = 8
redata: Time-Reversal Symmetry                      = F
redata: Spin-spiral                                 = F
############################################################
#              Spin-orbit coupling is in beta              #
#           Several options may not be compatible          #
############################################################
redata: Long output                                 =   F
redata: Number of Atomic Species                    =        5
redata: Charge density info will appear in .RHO file
redata: Write Mulliken Pop.                         = Atomic and Orbital charges
redata: Mesh Cutoff                                 =   350.0000 Ry
redata: Net charge of the system                    =     0.0000 |e|
redata: Min. number of SCF Iter                     =        0
redata: Max. number of SCF Iter                     =      300
redata: SCF mix quantity                            = Hamiltonian
redata: Mix DM or H after convergence               =   F
redata: Recompute H after scf cycle                 =   F
redata: Mix DM in first SCF step                    =   T
redata: Write Pulay info on disk                    =   F
redata: New DM Mixing Weight                        =     0.0300
redata: New DM Occupancy tolerance                  = 0.000000000001
redata: No kicks to SCF
redata: DM Mixing Weight for Kicks                  =     0.5000
redata: Require Harris convergence for SCF          =   F
redata: Harris energy tolerance for SCF             =     0.000100 eV
redata: Require DM convergence for SCF              =   T
redata: DM tolerance for SCF                        =     0.0001
redata: Require EDM convergence for SCF             =   F
redata: EDM tolerance for SCF                       =     0.001000 eV
redata: Require H convergence for SCF               =   T
redata: Hamiltonian tolerance for SCF               =     0.001000 eV
redata: Require (free) Energy convergence for SCF   =   F
redata: (free) Energy tolerance for SCF             =     0.000100 eV
redata: Using Saved Data (generic)                  =   F
redata: Use continuation files for DM               =   T
redata: Neglect nonoverlap interactions             =   F
redata: Method of Calculation                       = Diagonalization
redata: Divide and Conquer                          =   F
redata: Electronic Temperature                      =   299.9869 K
redata: Fix the spin of the system                  =   F
redata: Dynamics option                             = Single-point calculation
mix.SCF: Pulay mixing                            = Pulay
mix.SCF:    Variant                              = stable
mix.SCF:    History steps                        = 5
mix.SCF:    Linear mixing weight                 =     0.030000
mix.SCF:    Mixing weight                        =     0.030000
mix.SCF:    SVD condition                        = 0.1000E-07
mix.SCF: Spin-component mixing                   all
redata: ***********************************************************************

%block SCF.Mixers
  Pulay
%endblock SCF.Mixers

%block SCF.Mixer.Pulay
  # Mixing method
  method pulay
  variant stable

  # Mixing options
  weight 0.0300
  weight.linear 0.0300
  history 5
%endblock SCF.Mixer.Pulay

DM_history_depth set to one: no extrapolation allowed by default for geometry relaxation
Size of DM history Fstack: 1
Total number of electrons:  1556.000000
Total ionic charge:  1556.000000

Time-reversal symmetry not used.

siesta: k-grid: Number of k-points =    27
siesta: k-grid: Cutoff (effective) =    45.000 Ang
siesta: k-grid: Supercell and displacements
siesta: k-grid:    3   0   0      0.000
siesta: k-grid:    0   3   0      0.000
siesta: k-grid:    0   0   3      0.000


                     ====================================
                        Single-point calculation
                     ====================================

outcell: Unit cell vectors (Ang):
       30.000000    0.000000    0.000000
        0.000000   30.000000    0.000000
        0.000000    0.000000   97.471707

outcell: Cell vector modules (Ang)   :   30.000000   30.000000   97.471707
outcell: Cell angles (23,13,12) (deg):     90.0000     90.0000     90.0000
outcell: Cell volume (Ang**3)        :  87724.5362
<dSpData1D:S at geom step 0
  <sparsity:sparsity for geom step 0
    nrows_g=1474 nrows=1474 sparsity=.1598 nnzs=347154, refcount: 8>
  <dData1D:(new from dSpData1D) n=347154, refcount: 1>
refcount: 1>
new_DM -- step:     1
Initializing Density Matrix...

Attempting to read DM from file... Failed...
DM filled with atomic data:
<dSpData2D:DM initialized from atoms
  <sparsity:sparsity for geom step 0
    nrows_g=1474 nrows=1474 sparsity=.1598 nnzs=347154, refcount: 9>
  <dData2D:DM n=347154 m=8, refcount: 1>
refcount: 1>

initDM: Initial spin polarization (x,y,z) =    0.000000    0.000000  252.000001

No. of atoms with KB's overlaping orbs in proc 0. Max # of overlaps:     202     194
New grid distribution:   1
           1       1:  180    1:  180    1:  576

InitMesh: MESH =   360 x   360 x  1152 =   149299200
InitMesh: (bp) =   180 x   180 x   576 =    18662400
InitMesh: Mesh cutoff (required, used) =   350.000   386.055 Ry
ExtMesh (bp) on 0 =   260 x   260 x   656 =    44345600
PhiOnMesh: Number of (b)points on node 0 =             18662400
PhiOnMesh: nlist on node 0 =             19407876

stepf: Fermi-Dirac step function

siesta: Program's energy decomposition (eV):
siesta: Ebs     =    -14497.306516
siesta: Eions   =    133511.893270
siesta: Ena     =      3746.572303
siesta: Ekin    =     84699.114676
siesta: Enl     =    -52528.412595
siesta: Eso     =       -26.278981
siesta: Eldau   =         0.000000
siesta: DEna    =      -255.705106
siesta: DUscf   =       537.796351
siesta: DUext   =         0.000000
siesta: Exc     =    -20055.231077
siesta: eta*DQ  =         0.000000
siesta: Emadel  =         0.000000
siesta: Emeta   =         0.000000
siesta: Emolmec =         0.000000
siesta: Ekinion =         0.000000
siesta: Eharris =   -116602.427531
siesta: Etot    =   -117394.037699
siesta: FreeEng =   -117394.145544

        iscf     Eharris(eV)        E_KS(eV)     FreeEng(eV)     dDmax    Ef(eV) dHmax(eV)
   scf:    1  -116602.427531  -117394.037699  -117394.145544  0.970076 -0.963623 56.263251
timer: Routine,Calls,Time,% = IterSCF        1    5620.028  98.93
   scf:    2  -117725.895364  -117626.619010  -117626.744193  0.590257 -1.259291 35.494375
   scf:    3  -117688.785101  -117786.775057  -117786.917342  0.397176 -1.545511 18.606901
   scf:    4  -117791.591151  -117811.298241  -117811.459195  0.149302 -1.532700 10.021450
   scf:    5  -117826.701753  -117823.006443  -117823.153314  0.077191 -1.555168 10.890218
   scf:    6  -117829.179171  -117829.917941  -117830.077729  0.232618 -1.625711  9.527622
   scf:    7  -117835.096462  -117832.655207  -117832.815074  0.027887 -1.679683  7.351612
   scf:    8  -117837.549744  -117838.635971  -117838.828563  0.193007 -1.957444  6.451473
   scf:    9  -117837.681365  -117838.891886  -117839.096499  0.134772 -2.027090  9.752674
   scf:   10  -117832.966430  -117836.161134  -117836.372693  0.089959 -2.036698 12.895190
   scf:   11  -117814.983218  -117827.682489  -117827.874801  0.272613 -2.262327 20.322593
   scf:   12  -117835.560337  -117831.887072  -117832.072648  0.080038 -2.282370 18.000961
   scf:   13  -117846.335986  -117844.663395  -117844.817557  0.463212 -2.264262  2.668192
   scf:   14  -117845.246233  -117844.983901  -117845.133721  0.032805 -2.295226  2.210174
   scf:   15  -117845.628388  -117845.360899  -117845.500655  0.032014 -2.365962  2.160480
   scf:   16  -117846.488156  -117846.026187  -117846.157958  0.038945 -2.538658  1.556379
   scf:   17  -117846.443208  -117846.256761  -117846.387161  0.014805 -2.563449  1.543710
   scf:   18  -117846.804401  -117846.568890  -117846.704963  0.022904 -2.625267  1.236317
   scf:   19  -117846.738463  -117846.751866  -117846.893985  0.018945 -2.635260  1.010427
   scf:   20  -117846.917450  -117846.870677  -117847.017503  0.009887 -2.637429  0.953287
   scf:   21  -117846.934161  -117846.911325  -117847.062468  0.004615 -2.616840  0.897643
   scf:   22  -117846.944711  -117846.943203  -117847.096750  0.006548 -2.617732  0.602181
   scf:   23  -117846.992133  -117846.977692  -117847.132465  0.006529 -2.624039  0.535690
   scf:   24  -117847.001643  -117846.990534  -117847.145302  0.002386 -2.626308  0.525814
   scf:   25  -117847.034076  -117847.013015  -117847.169802  0.006443 -2.624854  0.397120
   scf:   26  -117847.036950  -117847.026320  -117847.186120  0.004355 -2.616073  0.332341
   scf:   27  -117847.025277  -117847.025863  -117847.185792  0.000550 -2.615758  0.331671
   scf:   28  -117847.025241  -117847.026353  -117847.184522  0.001422 -2.623432  0.296882
   scf:   29  -117847.028001  -117847.027470  -117847.185954  0.000727 -2.622687  0.309273
   scf:   30  -117847.027750  -117847.027621  -117847.186235  0.000260 -2.622162  0.310207
   scf:   31  -117847.031099  -117847.030103  -117847.190023  0.002137 -2.615578  0.323094
   scf:   32  -117847.030765  -117847.030455  -117847.190504  0.000503 -2.615253  0.316074
   scf:   33  -117847.044133  -117847.037436  -117847.198186  0.004563 -2.613989  0.240300
   scf:   34  -117847.045526  -117847.041592  -117847.202864  0.002883 -2.612738  0.188748
   scf:   35  -117847.044826  -117847.043528  -117847.205371  0.001234 -2.611506  0.198415
   scf:   36  -117847.055780  -117847.049695  -117847.213434  0.005092 -2.605814  0.113351
   scf:   37  -117847.053105  -117847.051428  -117847.216332  0.002333 -2.601546  0.090642
   scf:   38  -117847.053342  -117847.052486  -117847.218561  0.002987 -2.596233  0.059637
   scf:   39  -117847.053548  -117847.053054  -117847.219181  0.001095 -2.595245  0.056729
   scf:   40  -117847.053451  -117847.053254  -117847.219508  0.000620 -2.594393  0.053601
   scf:   41  -117847.054653  -117847.054013  -117847.220903  0.004228 -2.590092  0.052866
   scf:   42  -117847.054190  -117847.054125  -117847.221112  0.000733 -2.589618  0.039600
   scf:   43  -117847.053944  -117847.054039  -117847.221323  0.001584 -2.588038  0.030248
   scf:   44  -117847.054048  -117847.054065  -117847.221456  0.000866 -2.587748  0.025564
   scf:   45  -117847.054087  -117847.054076  -117847.221469  0.000090 -2.587783  0.027128
   scf:   46  -117847.054665  -117847.054375  -117847.221555  0.000347 -2.589120  0.022594
   scf:   47  -117847.055094  -117847.054742  -117847.221715  0.001182 -2.590464  0.026580
   scf:   48  -117847.055313  -117847.055041  -117847.221884  0.001151 -2.590649  0.022795
   scf:   49  -117847.055155  -117847.055103  -117847.221957  0.000545 -2.590605  0.026220
   scf:   50  -117847.055562  -117847.055329  -117847.222103  0.001215 -2.590692  0.025050
   scf:   51  -117847.055389  -117847.055361  -117847.222177  0.000660 -2.590438  0.021505
   scf:   52  -117847.055612  -117847.055483  -117847.222280  0.000963 -2.590485  0.020132
   scf:   53  -117847.055529  -117847.055506  -117847.222303  0.000218 -2.590574  0.017333
   scf:   54  -117847.055614  -117847.055560  -117847.222336  0.000334 -2.590801  0.015414
   scf:   55  -117847.055761  -117847.055661  -117847.222386  0.000506 -2.591114  0.016437
   scf:   56  -117847.055986  -117847.055821  -117847.222457  0.000823 -2.591511  0.014364
   scf:   57  -117847.056181  -117847.055996  -117847.222552  0.001105 -2.591791  0.013565
   scf:   58  -117847.055934  -117847.055965  -117847.222534  0.000229 -2.591740  0.013390
   scf:   59  -117847.056225  -117847.056091  -117847.222605  0.000913 -2.591917  0.012398
   scf:   60  -117847.056148  -117847.056119  -117847.222629  0.000355 -2.591879  0.012988
   scf:   61  -117847.056154  -117847.056136  -117847.222644  0.000210 -2.591895  0.012816
   scf:   62  -117847.056172  -117847.056154  -117847.222674  0.000430 -2.591856  0.012617
   scf:   63  -117847.056318  -117847.056230  -117847.222745  0.001137 -2.591928  0.010965
   scf:   64  -117847.056397  -117847.056310  -117847.222795  0.000900 -2.592053  0.009752
   scf:   65  -117847.056395  -117847.056351  -117847.222823  0.000552 -2.592113  0.009001
   scf:   66  -117847.056374  -117847.056362  -117847.222845  0.000434 -2.592082  0.008375
   scf:   67  -117847.056403  -117847.056382  -117847.222866  0.000460 -2.592088  0.007531
   scf:   68  -117847.056398  -117847.056388  -117847.222888  0.000544 -2.592034  0.006884
   scf:   69  -117847.056454  -117847.056418  -117847.222914  0.000700 -2.592045  0.006455
   scf:   70  -117847.056522  -117847.056465  -117847.222948  0.000994 -2.592088  0.005382
   scf:   71  -117847.056549  -117847.056501  -117847.222978  0.001099 -2.592111  0.004283
   scf:   72  -117847.056593  -117847.056544  -117847.223000  0.000942 -2.592182  0.004272
   scf:   73  -117847.056549  -117847.056546  -117847.223005  0.000228 -2.592172  0.005261
   scf:   74  -117847.056548  -117847.056543  -117847.223017  0.000867 -2.592156  0.001938
   scf:   75  -117847.056551  -117847.056545  -117847.223022  0.000507 -2.592160  0.001766
   scf:   76  -117847.056557  -117847.056551  -117847.223023  0.000059 -2.592178  0.002223
   scf:   77  -117847.056556  -117847.056552  -117847.223027  0.000549 -2.592190  0.001745
   scf:   78  -117847.056572  -117847.056562  -117847.223028  0.000064 -2.592225  0.001476
   scf:   79  -117847.056568  -117847.056565  -117847.223028  0.000038 -2.592235  0.001574
   scf:   80  -117847.056569  -117847.056567  -117847.223029  0.000020 -2.592242  0.001476
   scf:   81  -117847.056569  -117847.056568  -117847.223029  0.000071 -2.592246  0.001251
   scf:   82  -117847.056571  -117847.056569  -117847.223030  0.000064 -2.592251  0.001296
   scf:   83  -117847.056569  -117847.056569  -117847.223031  0.000138 -2.592249  0.001206
   scf:   84  -117847.056569  -117847.056569  -117847.223031  0.000039 -2.592244  0.001285
   scf:   85  -117847.056569  -117847.056569  -117847.223031  0.000054 -2.592243  0.001332
   scf:   86  -117847.056567  -117847.056568  -117847.223031  0.000030 -2.592238  0.001298
   scf:   87  -117847.056567  -117847.056568  -117847.223031  0.000002 -2.592236  0.001240
   scf:   88  -117847.056569  -117847.056569  -117847.223032  0.000071 -2.592237  0.001153
   scf:   89  -117847.056569  -117847.056569  -117847.223033  0.000045 -2.592238  0.001071
   scf:   90  -117847.056574  -117847.056571  -117847.223033  0.000075 -2.592245  0.001082
   scf:   91  -117847.056576  -117847.056574  -117847.223034  0.000094 -2.592252  0.000995

SCF Convergence by DM+H criterion
max |DM_out - DM_in|         :     0.0000940585
max |H_out - H_in|      (eV) :     0.0009947269
SCF cycle converged after 91 iterations

Using DM_out to compute the final energy and forces
No. of atoms with KB's overlaping orbs in proc 0. Max # of overlaps:     202     194

siesta: E_KS(eV) =          -117847.0566

siesta: E_KS - E_eggbox =   -117847.0566
siesta: Total spin polarization (x,y,z) =     0.003591   -0.001438    0.012837
siesta: S , {S} =     0.013407    0.003591   -0.001438    0.012837

siesta: Atomic forces (eV/Ang):
----------------------------------------
   Tot    0.028391    0.019223   -0.059771
----------------------------------------
   Max    2.721151
   Res    0.486652    sqrt( Sum f_i^2 / 3N )
----------------------------------------
   Max    2.721151    constrained

Stress-tensor-Voigt (kbar):        0.63        0.72        1.76        0.01       -0.04        0.02
(Free)E + p*V (eV/cell)  -117904.1554
Target enthalpy (eV/cell)  -117847.2230

moments: Atomic and Orbital Populations and Magnetic Moments:

Species: Au                  

Atom    Orb           Charge    sqrt(<S>^2)        <(Sx,Sy,Sz)>     sqrt(<L>^2)      <(Lx,Ly,Lz)>
----------------------------------------------------------------------------------------------------
   1    1  6s         1.3057                  -0.000 -0.000  0.000               0.000  0.000  0.000
   1    2  5dxy       1.9578                   0.000  0.000  0.000               0.000  0.000  0.000
   1    3  5dyz       1.9343                  -0.000  0.001  0.000              -0.000  0.000  0.000
   1    4  5dz2       1.9665                  -0.000 -0.000  0.000              -0.000 -0.000  0.000
   1    5  5dxz       1.9347                   0.001 -0.000  0.000               0.000 -0.000  0.000
   1    6  5dx2-y2    1.9163                  -0.001 -0.001  0.000              -0.000 -0.000  0.000
----------------------------------------------------------------------------------------------------
   1      Total      11.0153         0.000    -0.000 -0.000  0.000       0.000  -0.000 -0.000  0.000

   2    7  6s         1.3095                   0.000 -0.000  0.000               0.000  0.000  0.000
   2    8  5dxy       1.9572                  -0.000  0.000  0.000              -0.000  0.000  0.000
   2    9  5dyz       1.9342                   0.000  0.001  0.000               0.000  0.000  0.000
   2   10  5dz2       1.9666                   0.000 -0.000  0.000               0.000 -0.000  0.000
   2   11  5dxz       1.9340                  -0.001 -0.000  0.000              -0.000 -0.000  0.000
   2   12  5dx2-y2    1.9158                   0.001 -0.001  0.000               0.000 -0.000  0.000
----------------------------------------------------------------------------------------------------
   2      Total      11.0172         0.000     0.000 -0.000  0.000       0.000   0.000 -0.000  0.000

   3   13  6s         1.3086                   0.000  0.000  0.000               0.000  0.000  0.000
   3   14  5dxy       1.9573                  -0.000 -0.000  0.000              -0.000 -0.000  0.000
   3   15  5dyz       1.9344                   0.000 -0.001  0.000               0.000 -0.000  0.000
   3   16  5dz2       1.9666                   0.000  0.000  0.000               0.000  0.000  0.000
   3   17  5dxz       1.9340                  -0.001  0.000  0.000              -0.000  0.000  0.000
   3   18  5dx2-y2    1.9158                   0.001  0.001 -0.000               0.000  0.000  0.000
----------------------------------------------------------------------------------------------------
   3      Total      11.0168         0.000     0.000  0.000  0.000       0.000   0.000  0.000  0.000

   4   19  6s         1.3040                  -0.000  0.000  0.000               0.000  0.000  0.000
   4   20  5dxy       1.9580                   0.000 -0.000  0.000               0.000 -0.000  0.000
   4   21  5dyz       1.9345                  -0.000 -0.001  0.000              -0.000 -0.000  0.000
   4   22  5dz2       1.9665                  -0.000  0.000  0.000              -0.000  0.000  0.000
   4   23  5dxz       1.9348                   0.001  0.000  0.000               0.000  0.000  0.000
   4   24  5dx2-y2    1.9166                  -0.001  0.001  0.000              -0.000  0.000  0.000
----------------------------------------------------------------------------------------------------
   4      Total      11.0144         0.000    -0.000  0.000  0.000       0.000  -0.000  0.000  0.000

   5   25  6s         1.3478                   0.000 -0.000  0.000               0.000  0.000  0.000
   5   26  5dxy       1.9602                  -0.000  0.000  0.000              -0.000 -0.000  0.000
   5   27  5dyz       1.9669                  -0.000 -0.000  0.000              -0.000 -0.000  0.000
   5   28  5dz2       1.9636                  -0.000 -0.000  0.000              -0.000 -0.000  0.000
   5   29  5dxz       1.8607                   0.000 -0.000 -0.000              -0.000 -0.000  0.000
   5   30  5dx2-y2    1.9417                   0.000  0.000  0.000               0.000 -0.000  0.000
----------------------------------------------------------------------------------------------------
   5      Total      11.0409         0.000    -0.000 -0.000  0.000       0.000  -0.000 -0.000  0.000

   6   31  6s         1.1406                   0.000 -0.000  0.000               0.000  0.000  0.000
   6   32  5dxy       1.9440                  -0.000  0.000  0.000              -0.000  0.000  0.000
   6   33  5dyz       1.9261                   0.000 -0.000 -0.000               0.000  0.000  0.000
   6   34  5dz2       1.9472                  -0.000  0.000  0.000               0.000 -0.000  0.000
   6   35  5dxz       1.9255                   0.000 -0.000 -0.000              -0.000 -0.000  0.000
   6   36  5dx2-y2    1.9601                   0.000 -0.000  0.000              -0.000  0.000  0.000
----------------------------------------------------------------------------------------------------
   6      Total      10.8434         0.000     0.000 -0.000  0.000       0.000   0.000 -0.000  0.000

   7   37  6s         1.3005                   0.000  0.000  0.000               0.000  0.000  0.000
   7   38  5dxy       1.9349                   0.000  0.000 -0.000              -0.000 -0.000  0.000
   7   39  5dyz       1.9056                  -0.000  0.000 -0.000               0.000 -0.000  0.000
   7   40  5dz2       1.9705                   0.000  0.000  0.000               0.000  0.000  0.000
   7   41  5dxz       1.9056                   0.000 -0.000  0.000              -0.000  0.000  0.000
   7   42  5dx2-y2    1.9470                  -0.000 -0.000  0.000              -0.000  0.000  0.000
----------------------------------------------------------------------------------------------------
   7      Total      10.9640         0.000     0.000  0.000  0.000       0.000   0.000  0.000  0.000

   8   43  6s         1.2979                  -0.000  0.000  0.000               0.000  0.000  0.000
   8   44  5dxy       1.9353                  -0.000  0.000 -0.000              -0.000  0.000  0.000
   8   45  5dyz       1.9059                   0.000  0.000 -0.000              -0.000  0.000  0.000
   8   46  5dz2       1.9701                  -0.000  0.000 -0.000              -0.000  0.000  0.000
   8   47  5dxz       1.9059                  -0.000 -0.000 -0.000              -0.000  0.000  0.000
   8   48  5dx2-y2    1.9472                   0.000 -0.000  0.000              -0.000  0.000  0.000
----------------------------------------------------------------------------------------------------
   8      Total      10.9622         0.000    -0.000  0.000  0.000       0.000  -0.000  0.000  0.000

   9   49  6s         1.3485                   0.000  0.000  0.000               0.000  0.000  0.000
   9   50  5dxy       1.9600                  -0.000 -0.000  0.000               0.000  0.000  0.000
   9   51  5dyz       1.8606                   0.000 -0.000 -0.000               0.000  0.000  0.000
   9   52  5dz2       1.9637                   0.000  0.000  0.000               0.000  0.000  0.000
   9   53  5dxz       1.9670                   0.000  0.000  0.000               0.000  0.000  0.000
   9   54  5dx2-y2    1.9416                  -0.000 -0.000  0.000               0.000 -0.000  0.000
----------------------------------------------------------------------------------------------------
   9      Total      11.0414         0.000     0.000  0.000  0.000       0.000   0.000  0.000  0.000

  10   55  6s         1.2990                  -0.000 -0.000  0.000               0.000  0.000  0.000
  10   56  5dxy       1.9352                  -0.000 -0.000 -0.000               0.000 -0.000  0.000
  10   57  5dyz       1.9058                   0.000 -0.000  0.000              -0.000 -0.000  0.000
  10   58  5dz2       1.9702                  -0.000 -0.000  0.000              -0.000 -0.000  0.000
  10   59  5dxz       1.9057                  -0.000  0.000 -0.000               0.000 -0.000  0.000
  10   60  5dx2-y2    1.9471                   0.000  0.000  0.000              -0.000 -0.000  0.000
----------------------------------------------------------------------------------------------------
  10      Total      10.9630         0.000    -0.000 -0.000  0.000       0.000  -0.000 -0.000  0.000

  11   61  6s         1.3462                  -0.000 -0.000  0.000               0.000  0.000  0.000
  11   62  5dxy       1.9604                   0.000  0.000  0.000              -0.000  0.000  0.000
  11   63  5dyz       1.8615                  -0.000 -0.000 -0.000              -0.000  0.000  0.000
  11   64  5dz2       1.9635                  -0.000  0.000  0.000              -0.000  0.000  0.000
  11   65  5dxz       1.9665                  -0.000  0.000  0.000              -0.000  0.000  0.000
  11   66  5dx2-y2    1.9419                   0.000 -0.000  0.000               0.000 -0.000  0.000
----------------------------------------------------------------------------------------------------
  11      Total      11.0400         0.000    -0.000  0.000  0.000       0.000  -0.000  0.000  0.000

  12   67  6s         1.3012                   0.000 -0.000  0.000               0.000  0.000  0.000
  12   68  5dxy       1.9348                   0.000 -0.000 -0.000              -0.000  0.000 -0.000
  12   69  5dyz       1.9055                  -0.000 -0.000  0.000               0.000  0.000  0.000
  12   70  5dz2       1.9706                   0.000 -0.000  0.000               0.000 -0.000  0.000
  12   71  5dxz       1.9055                   0.000  0.000  0.000              -0.000 -0.000  0.000
  12   72  5dx2-y2    1.9470                  -0.000  0.000  0.000              -0.000 -0.000 -0.000
----------------------------------------------------------------------------------------------------
  12      Total      10.9646         0.000     0.000 -0.000  0.000       0.000   0.000 -0.000  0.000

  13   73  6s         1.3471                   0.000  0.000  0.000               0.000  0.000  0.000
  13   74  5dxy       1.9603                  -0.000 -0.000  0.000              -0.000  0.000  0.000
  13   75  5dyz       1.9668                  -0.000  0.000  0.000              -0.000  0.000  0.000
  13   76  5dz2       1.9635                  -0.000  0.000  0.000              -0.000  0.000  0.000
  13   77  5dxz       1.8610                   0.000  0.000 -0.000              -0.000  0.000  0.000
  13   78  5dx2-y2    1.9418                   0.000 -0.000  0.000               0.000  0.000  0.000
----------------------------------------------------------------------------------------------------
  13      Total      11.0405         0.000    -0.000  0.000  0.000       0.000  -0.000  0.000  0.000

  14   79  6s         1.3569                  -0.000  0.000  0.000               0.000  0.000  0.000
  14   80  5dxy       1.9648                   0.000  0.000  0.000              -0.000  0.000  0.000
  14   81  5dyz       1.9497                  -0.000 -0.000  0.000               0.000  0.000  0.000
  14   82  5dz2       1.9693                  -0.000  0.000  0.000               0.000  0.000  0.000
  14   83  5dxz       1.8640                   0.000 -0.000 -0.000              -0.000  0.000  0.000
  14   84  5dx2-y2    1.9425                  -0.000 -0.000  0.000               0.000 -0.000  0.000
----------------------------------------------------------------------------------------------------
  14      Total      11.0472         0.000    -0.000  0.000  0.000       0.000  -0.000  0.000  0.000

  15   85  6s         1.1455                   0.000 -0.000 -0.000               0.000  0.000  0.000
  15   86  5dxy       1.9600                   0.000  0.000  0.000              -0.000  0.000  0.000
  15   87  5dyz       1.9314                   0.000 -0.000 -0.000              -0.000  0.000  0.000
  15   88  5dz2       1.9557                  -0.000  0.000  0.000              -0.000 -0.000  0.000
  15   89  5dxz       1.9311                   0.000 -0.000 -0.000              -0.000  0.000  0.000
  15   90  5dx2-y2    1.9610                   0.000 -0.000  0.000              -0.000  0.000  0.000
----------------------------------------------------------------------------------------------------
  15      Total      10.8846         0.000     0.000 -0.000  0.000       0.000  -0.000  0.000  0.000

  16   91  6s         1.3137                  -0.000 -0.000  0.000               0.000  0.000  0.000
  16   92  5dxy       1.9349                  -0.000 -0.000  0.000              -0.000 -0.000  0.000
  16   93  5dyz       1.9065                   0.000  0.000  0.000               0.000 -0.000  0.000
  16   94  5dz2       1.9732                  -0.000 -0.000  0.000               0.000  0.000  0.000
  16   95  5dxz       1.9063                   0.000  0.000 -0.000              -0.000  0.000  0.000
  16   96  5dx2-y2    1.9443                  -0.000 -0.000  0.000               0.000  0.000  0.000
----------------------------------------------------------------------------------------------------
  16      Total      10.9790         0.000    -0.000 -0.000  0.000       0.000   0.000  0.000  0.000

  17   97  6s         1.3083                   0.000 -0.000  0.000               0.000  0.000  0.000
  17   98  5dxy       1.9357                   0.000 -0.000  0.000               0.000 -0.000  0.000
  17   99  5dyz       1.9071                  -0.000  0.000 -0.000              -0.000 -0.000  0.000
  17  100  5dz2       1.9728                   0.000 -0.000  0.000              -0.000  0.000  0.000
  17  101  5dxz       1.9072                  -0.000  0.000  0.000               0.000  0.000  0.000
  17  102  5dx2-y2    1.9447                   0.000 -0.000  0.000              -0.000  0.000  0.000
----------------------------------------------------------------------------------------------------
  17      Total      10.9758         0.000     0.000 -0.000  0.000       0.000  -0.000  0.000  0.000

  18  103  6s         1.3581                  -0.000  0.000  0.000               0.000  0.000  0.000
  18  104  5dxy       1.9649                  -0.000 -0.000  0.000              -0.000  0.000  0.000
  18  105  5dyz       1.8646                   0.000 -0.000  0.000              -0.000  0.000  0.000
  18  106  5dz2       1.9694                  -0.000  0.000  0.000              -0.000 -0.000  0.000
  18  107  5dxz       1.9483                   0.000  0.000  0.000              -0.000 -0.000  0.000
  18  108  5dx2-y2    1.9427                   0.000 -0.000  0.000               0.000 -0.000  0.000
----------------------------------------------------------------------------------------------------
  18      Total      11.0480         0.000    -0.000  0.000  0.000       0.000  -0.000  0.000  0.000

  19  109  6s         1.3098                   0.000  0.000  0.000               0.000  0.000  0.000
  19  110  5dxy       1.9355                   0.000  0.000  0.000               0.000  0.000  0.000
  19  111  5dyz       1.9069                  -0.000 -0.000 -0.000              -0.000  0.000  0.000
  19  112  5dz2       1.9729                   0.000  0.000  0.000              -0.000 -0.000  0.000
  19  113  5dxz       1.9070                  -0.000 -0.000  0.000               0.000 -0.000  0.000
  19  114  5dx2-y2    1.9446                   0.000  0.000  0.000              -0.000 -0.000  0.000
----------------------------------------------------------------------------------------------------
  19      Total      10.9767         0.000     0.000  0.000  0.000       0.000  -0.000 -0.000  0.000

  20  115  6s         1.3547                   0.000  0.000  0.000               0.000  0.000  0.000
  20  116  5dxy       1.9646                   0.000 -0.000  0.000               0.000  0.000  0.000
  20  117  5dyz       1.8633                  -0.000 -0.000 -0.000               0.000  0.000  0.000
  20  118  5dz2       1.9693                   0.000  0.000 -0.000               0.000 -0.000  0.000
  20  119  5dxz       1.9519                  -0.000 -0.000  0.000               0.000 -0.000  0.000
  20  120  5dx2-y2    1.9422                  -0.000  0.000  0.000              -0.000 -0.000  0.000
----------------------------------------------------------------------------------------------------
  20      Total      11.0460         0.000     0.000 -0.000  0.000       0.000   0.000 -0.000  0.000

  21  121  6s         1.3146                  -0.000  0.000  0.000               0.000  0.000  0.000
  21  122  5dxy       1.9348                  -0.000  0.000  0.000              -0.000  0.000  0.000
  21  123  5dyz       1.9063                   0.000 -0.000  0.000               0.000  0.000  0.000
  21  124  5dz2       1.9734                  -0.000  0.000  0.000               0.000 -0.000  0.000
  21  125  5dxz       1.9062                   0.000 -0.000 -0.000              -0.000 -0.000  0.000
  21  126  5dx2-y2    1.9443                  -0.000  0.000  0.000               0.000 -0.000  0.000
----------------------------------------------------------------------------------------------------
  21      Total      10.9795         0.000    -0.000  0.000  0.000       0.000   0.000 -0.000  0.000

  22  127  6s         1.3560                  -0.000 -0.000  0.000               0.000  0.000  0.000
  22  128  5dxy       1.9647                   0.000 -0.000  0.000              -0.000 -0.000  0.000
  22  129  5dyz       1.9507                  -0.000  0.000  0.000               0.000 -0.000  0.000
  22  130  5dz2       1.9693                  -0.000 -0.000  0.000               0.000 -0.000  0.000
  22  131  5dxz       1.8636                   0.000  0.000 -0.000              -0.000 -0.000  0.000
  22  132  5dx2-y2    1.9424                  -0.000  0.000  0.000               0.000  0.000  0.000
----------------------------------------------------------------------------------------------------
  22      Total      11.0467         0.000    -0.000 -0.000  0.000       0.000  -0.000 -0.000  0.000

  23  133  6s         1.3641                   0.000  0.000 -0.000               0.000  0.000  0.000
  23  134  5dxy       1.9626                   0.000  0.000 -0.000              -0.000  0.000  0.000
  23  135  5dyz       1.9591                   0.000 -0.000  0.000              -0.000  0.000  0.000
  23  136  5dz2       1.9673                   0.000  0.000  0.000              -0.000  0.000  0.000
  23  137  5dxz       1.8599                  -0.000 -0.000  0.000              -0.000  0.000  0.000
  23  138  5dx2-y2    1.9397                   0.000 -0.000 -0.000               0.000  0.000  0.000
----------------------------------------------------------------------------------------------------
  23      Total      11.0527         0.000     0.000  0.000  0.000       0.000  -0.000  0.000  0.000

  24  139  6s         1.1395                  -0.000  0.000 -0.000               0.000  0.000  0.000
  24  140  5dxy       1.9567                  -0.000 -0.000 -0.000              -0.000  0.000 -0.000
  24  141  5dyz       1.9289                  -0.000  0.000  0.000              -0.000  0.000 -0.000
  24  142  5dz2       1.9497                   0.000 -0.000 -0.000              -0.000  0.000  0.000
  24  143  5dxz       1.9287                  -0.000  0.000  0.000              -0.000  0.000 -0.000
  24  144  5dx2-y2    1.9695                  -0.000  0.000 -0.000              -0.000  0.000 -0.000
----------------------------------------------------------------------------------------------------
  24      Total      10.8729         0.000    -0.000  0.000 -0.000       0.000  -0.000  0.000 -0.000

  25  145  6s         1.3637                  -0.000 -0.000 -0.000               0.000  0.000  0.000
  25  146  5dxy       1.9628                  -0.000 -0.000 -0.000              -0.000  0.000  0.000
  25  147  5dyz       1.8603                   0.000  0.000  0.000              -0.000  0.000 -0.000
  25  148  5dz2       1.9673                  -0.000 -0.000 -0.000              -0.000 -0.000  0.000
  25  149  5dxz       1.9586                   0.000  0.000  0.000              -0.000 -0.000 -0.000
  25  150  5dx2-y2    1.9398                   0.000 -0.000 -0.000              -0.000 -0.000  0.000
----------------------------------------------------------------------------------------------------
  25      Total      11.0525         0.000    -0.000 -0.000  0.000       0.000  -0.000 -0.000 -0.000

  26  151  6s         1.3648                   0.000 -0.000  0.000               0.000  0.000  0.000
  26  152  5dxy       1.9624                   0.000 -0.000 -0.000               0.000  0.000  0.000
  26  153  5dyz       1.8594                  -0.000  0.000  0.000               0.000  0.000  0.000
  26  154  5dz2       1.9673                  -0.000 -0.000  0.000               0.000 -0.000  0.000
  26  155  5dxz       1.9598                   0.000 -0.000  0.000               0.000 -0.000  0.000
  26  156  5dx2-y2    1.9394                  -0.000 -0.000 -0.000               0.000 -0.000  0.000
[...]
 126  955  2py        0.0752                  -0.000 -0.000  0.000              -0.000  0.000 -0.000
 126  956  2pz        0.0195                   0.000 -0.000  0.000              -0.000  0.000  0.000
 126  957  2px        0.1637                  -0.000  0.000  0.000               0.000  0.000 -0.000
 126  958  2Pdxy      0.0118                  -0.000 -0.000 -0.000              -0.000 -0.000  0.000
 126  959  2Pdyz      0.0022                  -0.000  0.000  0.000              -0.000 -0.000 -0.000
 126  960  2Pdz2      0.0056                  -0.000  0.000 -0.000              -0.000  0.000  0.000
 126  961  2Pdxz      0.0077                  -0.000  0.000  0.000              -0.000  0.000 -0.000
 126  962  2Pdx2-y    0.0124                   0.000  0.000 -0.000               0.000 -0.000  0.000
----------------------------------------------------------------------------------------------------
 126      Total       5.9266         0.000     0.000 -0.000  0.000       0.000   0.000 -0.000 -0.000

 140 1084  2s         0.8010                   0.000 -0.000  0.000               0.000  0.000  0.000
 140 1085  2s         0.5872                  -0.000  0.000 -0.000               0.000  0.000  0.000
 140 1086  2py        1.1901                  -0.000 -0.000  0.000               0.000  0.000 -0.000
 140 1087  2pz        1.2729                   0.000  0.000  0.000               0.000  0.000  0.000
 140 1088  2px        1.1393                  -0.000 -0.000  0.000               0.000  0.000 -0.000
 140 1089  2py        0.2286                   0.000  0.000 -0.000              -0.000  0.000  0.000
 140 1090  2pz        0.2119                  -0.000  0.000 -0.000              -0.000 -0.000  0.000
 140 1091  2px        0.2608                   0.000  0.000 -0.000               0.000 -0.000  0.000
 140 1092  2Pdxy      0.0064                   0.000 -0.000 -0.000              -0.000  0.000  0.000
 140 1093  2Pdyz      0.0066                   0.000  0.000 -0.000              -0.000  0.000 -0.000
 140 1094  2Pdz2      0.0074                   0.000  0.000 -0.000              -0.000  0.000  0.000
 140 1095  2Pdxz      0.0063                  -0.000  0.000 -0.000              -0.000  0.000 -0.000
 140 1096  2Pdx2-y    0.0120                  -0.000 -0.000 -0.000              -0.000 -0.000  0.000
----------------------------------------------------------------------------------------------------
 140      Total       5.7307         0.000     0.000 -0.000  0.000       0.000   0.000  0.000 -0.000

 142 1102  2s         1.2697                  -0.000  0.000  0.000               0.000  0.000  0.000
 142 1103  2s         0.3362                   0.000 -0.000 -0.000               0.000  0.000  0.000
 142 1104  2py        1.6704                  -0.000 -0.000 -0.000               0.000  0.000  0.000
 142 1105  2pz        1.1227                  -0.001  0.000 -0.000               0.000 -0.000  0.000
 142 1106  2px        1.5450                   0.001  0.001 -0.000               0.000 -0.000  0.000
 142 1107  2py       -0.0419                   0.000  0.000 -0.000              -0.000  0.000 -0.000
 142 1108  2pz        0.1247                   0.002 -0.000 -0.000              -0.000  0.000  0.000
 142 1109  2px       -0.0195                  -0.001 -0.000 -0.000               0.000  0.000 -0.000
 142 1110  2Pdxy      0.0034                  -0.000  0.000  0.000              -0.000  0.000 -0.000
 142 1111  2Pdyz      0.0088                   0.000  0.000  0.000               0.000  0.000 -0.000
 142 1112  2Pdz2      0.0100                  -0.000  0.000 -0.000               0.000 -0.000  0.000
 142 1113  2Pdxz      0.0088                  -0.000 -0.000  0.000              -0.000 -0.000 -0.000
 142 1114  2Pdx2-y    0.0037                  -0.000 -0.000  0.000              -0.000 -0.000 -0.000
----------------------------------------------------------------------------------------------------
 142      Total       6.0421         0.000    -0.000  0.000 -0.000       0.000   0.000 -0.000  0.000

----------------------------------------------------------------------------------------------------
 Sum               1556.0000         0.007     0.002 -0.001  0.006       0.001   0.001  0.000  0.001


coxmol: Writing XMOL coordinates into file em.xyz                                                              

siesta: Program's energy decomposition (eV):
siesta: Ebs     =    -10733.033980
siesta: Eions   =    133511.893270
siesta: Ena     =      3746.572303
siesta: Ekin    =     85135.667067
siesta: Enl     =    -53192.180564
siesta: Eso     =       -16.099053
siesta: Eldau   =         0.000000
siesta: DEna    =        31.983462
siesta: DUscf   =        44.901875
siesta: DUext   =         0.000000
siesta: Exc     =    -20086.008392
siesta: eta*DQ  =         0.000000
siesta: Emadel  =         0.000000
siesta: Emeta   =         0.000000
siesta: Emolmec =         0.000000
siesta: Ekinion =         0.000000
siesta: Eharris =   -117847.056576
siesta: Etot    =   -117847.056574
siesta: FreeEng =   -117847.223034

siesta: Final energy (eV):
siesta:  Band Struct. =  -10733.033980
siesta:       Kinetic =   85135.667067
siesta:       Hartree =  582123.902729
siesta:       Eldau   =       0.000000
siesta:       Eso     =     -16.099053
siesta:    Ext. field =       0.000000
siesta:   Exch.-corr. =  -20086.008392
siesta:  Ion-electron =-1233811.236899
siesta:       Ion-ion =  468806.717974
siesta:       Ekinion =       0.000000
siesta:         Total = -117847.056574
siesta:         Fermi =      -2.592252

siesta: Atomic forces (eV/Ang):
siesta:      1    0.271269    0.262825    0.259131
siesta:      2   -0.272596    0.274841    0.232380
siesta:      3   -0.269829   -0.274990    0.239842
siesta:      4    0.269644   -0.264070    0.269639
siesta:      5    0.003639    0.600797    0.348501
siesta:      6    0.007400    0.002846   -0.690453
siesta:      7   -0.632816   -0.624924   -0.007408
siesta:      8    0.623970   -0.630807   -0.018192
siesta:      9   -0.600722   -0.000974    0.358737
siesta:     10    0.622778    0.633134   -0.014103
siesta:     11    0.599366   -0.001303    0.324167
siesta:     12   -0.630147    0.625713   -0.004669
siesta:     13    0.003964   -0.602445    0.336821
siesta:     14    0.003575    0.938431   -0.066126
siesta:     15   -0.008303    0.007468    0.025202
siesta:     16   -0.580868   -0.568950    0.030327
siesta:     17    0.570144   -0.575680    0.036981
siesta:     18   -0.928244   -0.001488   -0.065151
siesta:     19    0.565994    0.579981    0.035137
siesta:     20    0.955829   -0.001965   -0.071775
siesta:     21   -0.575671    0.572226    0.027843
siesta:     22    0.004059   -0.948301   -0.069038
siesta:     23    0.000071    0.869954   -0.056877
siesta:     24   -0.003507    0.005795    0.033510
siesta:     25   -0.866452    0.000049   -0.071621
siesta:     26    0.873418    0.000378   -0.033070
siesta:     27   -0.000305   -0.872155   -0.045653
siesta:     28   -0.525588   -0.530100   -0.010558
siesta:     29    0.527941   -0.527675   -0.000305
siesta:     30    0.528513    0.525890   -0.004520
siesta:     31   -0.525824    0.527989   -0.013367
siesta:     32   -0.007343    0.838556    0.071568
siesta:     33    0.010866    0.001647   -0.029489
siesta:     34   -0.581523   -0.593976   -0.032192
siesta:     35    0.589597   -0.584474   -0.035275
siesta:     36   -0.846717    0.000911    0.064505
siesta:     37    0.594086    0.582063   -0.034562
siesta:     38    0.823242    0.001264    0.079014
siesta:     39   -0.585438    0.591015   -0.030362
siesta:     40   -0.007677   -0.832597    0.074838
siesta:     41    0.000978    0.949360    0.030512
siesta:     42    0.011984    0.001970    0.064916
siesta:     43   -0.540926   -0.538702   -0.009722
siesta:     44    0.533119   -0.535186   -0.025733
siesta:     45   -0.954282    0.000170    0.046704
siesta:     46    0.533158    0.535154   -0.021560
siesta:     47    0.939651    0.000610   -0.000576
siesta:     48   -0.541531    0.539162   -0.007228
siesta:     49    0.000499   -0.944745    0.018692
siesta:     50    0.011443    0.530727   -0.216199
siesta:     51   -0.012548    0.006169    0.389969
siesta:     52   -0.510429   -0.003995   -0.215358
siesta:     53    0.563829   -0.005549   -0.223118
siesta:     54    0.013177   -0.540926   -0.219234
siesta:     55    0.177065    0.200438   -0.225042
siesta:     56   -0.237121    0.219557   -0.171631
siesta:     57   -0.226227   -0.203998   -0.180816
siesta:     58    0.165845   -0.184954   -0.235538
siesta:     59    0.187314   -0.037539    1.307557
siesta:     60    0.056667    0.461631   -0.157650
siesta:     61    0.904949   -2.211676    1.420439
siesta:     62   -0.369063    0.045407    0.014850
siesta:     63   -1.580851    0.560928    1.458314
siesta:     64    0.738842    0.283120   -0.699890
siesta:     65    0.672135   -0.035000    0.058448
siesta:     66   -0.495438    0.182766   -0.300759
siesta:     67   -0.464685    0.410310   -1.036039
siesta:     68    0.383036   -0.339479   -0.428979
siesta:     69   -0.020760    0.463226    0.464281
siesta:     70   -0.457666   -0.146996    0.374588
siesta:     71   -0.502738   -0.382369   -1.100435
siesta:     72    0.048004    0.517488    0.812278
siesta:     73   -0.335938    0.955054    0.728106
siesta:     74    0.471851   -0.369100   -0.465772
siesta:     75    0.266143   -0.616509   -0.549616
siesta:     76    0.094396    0.497884    0.496365
siesta:     77    0.865409    0.603794   -0.522172
siesta:     78   -0.243357   -0.256315   -0.379169
siesta:     79    0.185027   -0.287737    0.363892
siesta:     80   -0.323845    0.384795    0.169337
siesta:     81   -0.127052    0.479244   -0.726243
siesta:     82    0.067636   -0.038645    0.602876
siesta:     83    0.752762    0.336828    0.859584
siesta:     84   -0.303558   -0.460191   -0.527817
siesta:     85   -0.144399   -0.114978   -0.726898
siesta:     86    0.205540   -0.143533    0.633711
siesta:     87    0.510849   -1.073564   -0.432563
siesta:     88   -0.066967    0.302799   -0.371852
siesta:     89   -0.389187   -0.134678    0.278210
siesta:     90    0.371801    0.325509    0.308148
siesta:     91    0.264258    0.059414   -0.562525
siesta:     92    0.123750   -0.219796    0.307255
siesta:     93    0.090781   -0.784713    0.864710
siesta:     94   -0.235853    0.360615   -0.581425
siesta:     95    0.106526   -0.027516   -0.730806
siesta:     96   -0.466842   -0.045053    0.778688
siesta:     97   -0.957825   -0.310665   -0.625217
siesta:     98    0.366288    0.057586   -0.314837
siesta:     99   -0.105510    0.439071    0.272619
siesta:    100    0.091212   -0.597203    0.402637
siesta:    101    0.034691   -0.251538   -0.580203
siesta:    102   -0.137380   -0.105192    0.827346
siesta:    103   -0.993652    0.128682    0.660496
siesta:    104    0.483274    0.198009   -0.509124
siesta:    105    0.478884   -0.189713   -0.923063
siesta:    106   -0.481721    0.245370    1.035122
siesta:    107   -0.015181    0.981255   -0.642565
siesta:    108    0.080495   -0.372502   -0.326728
siesta:    109    0.320398    0.104761    0.452255
siesta:    110   -0.630583   -0.028141    0.238527
siesta:    111   -0.337266    0.038049   -0.585469
siesta:    112   -0.219711    0.181253    0.682554
siesta:    113    0.097890    0.967784    0.759258
siesta:    114    0.289461   -0.508243   -0.469249
siesta:    115   -0.083057   -0.277865   -0.827592
siesta:    116    0.182990    0.345792    0.949852
siesta:    117    1.099434   -0.032623   -0.424946
siesta:    118   -0.298948   -0.040817   -0.426750
siesta:    119   -0.009423   -0.339322    0.477736
siesta:    120   -0.017263    0.602653    0.249205
siesta:    121   -0.073884    0.314134   -0.672136
siesta:    122    0.278666    0.122600    0.667362
siesta:    123    0.630302   -0.249475    0.891940
siesta:    124   -0.587579    0.034655   -0.420852
siesta:    125    0.002580    0.169972   -2.721151
siesta:    126    0.040191    0.066335    0.623046
siesta:    127   -0.305154   -0.149407   -1.176052
siesta:    128   -0.383920    0.073048    0.602262
siesta:    129    0.725658   -0.285714    0.233217
siesta:    130   -0.077696   -0.368973    0.114567
siesta:    131   -0.648055    0.304872   -0.242229
siesta:    132    0.460698   -0.381092    0.118930
siesta:    133    0.763667    0.181071   -0.364386
siesta:    134   -0.482346   -0.195313    0.253613
siesta:    135   -0.819890   -0.277533    0.395332
siesta:    136    0.482120    0.213489   -0.260427
siesta:    137    0.719855   -0.364378    0.135117
siesta:    138   -0.430910    0.324569   -0.156605
siesta:    139   -0.049447    0.279867   -0.209264
siesta:    140   -0.051537   -0.637967    0.497734
siesta:    141    0.068352    0.025803   -0.031377
siesta:    142    0.589827   -0.141517    1.419684
siesta:    143   -0.890465    0.168627   -0.426837
siesta:    144    0.069810    0.005127   -1.878007
siesta:    145    0.138370   -0.136794    0.243941
siesta:    146   -0.154587   -0.151715    0.241094
siesta:    147   -0.150354    0.152168    0.239367
siesta:    148    0.144978    0.148037    0.235383
siesta:    149    0.005218   -0.578583    0.231544
siesta:    150    0.578949   -0.003436    0.235697
siesta:    151   -0.571769   -0.000554    0.224778
siesta:    152    0.002141    0.005768   -0.367491
siesta:    153    0.002328    0.571218    0.229659
siesta:    154   -0.001083   -0.918437   -0.027267
siesta:    155   -0.556159    0.555165    0.008003
siesta:    156    0.914721   -0.001392   -0.026703
siesta:    157    0.552867    0.552984    0.009908
siesta:    158   -0.923366    0.000629   -0.033042
siesta:    159    0.554430   -0.554617    0.012907
siesta:    160   -0.554985   -0.554072    0.009189
siesta:    161    0.005986    0.002643   -0.027892
siesta:    162   -0.003104    0.918769   -0.032513
siesta:    163    0.000821   -0.833262   -0.072288
siesta:    164   -0.564996    0.566140    0.032139
siesta:    165    0.832152   -0.000304   -0.073468
siesta:    166    0.565976    0.561606    0.032298
siesta:    167   -0.837107    0.002261   -0.068278
siesta:    168    0.566952   -0.565121    0.032770
siesta:    169   -0.562385   -0.566063    0.033099
siesta:    170    0.004598    0.002242    0.008395
siesta:    171   -0.001738    0.835412   -0.070052
siesta:    172   -0.525539    0.524875    0.008396
siesta:    173    0.524098    0.522967    0.004877
siesta:    174    0.524917   -0.525282    0.004607
siesta:    175   -0.524450   -0.525275    0.005285
siesta:    176    0.000658   -0.857435    0.048335
siesta:    177    0.857458   -0.001012    0.049265
siesta:    178   -0.855496    0.000165    0.053771
siesta:    179    0.002284    0.004682   -0.026161
siesta:    180   -0.000511    0.855159    0.054351
siesta:    181    0.000570   -0.947882    0.064789
siesta:    182   -0.570163    0.570245   -0.030907
siesta:    183    0.947515   -0.000651    0.065586
siesta:    184    0.567795    0.571189   -0.029219
siesta:    185   -0.943778   -0.000705    0.062983
siesta:    186    0.570131   -0.569803   -0.032340
siesta:    187   -0.571469   -0.567840   -0.029897
siesta:    188    0.002672    0.006067   -0.012774
siesta:    189    0.000623    0.943085    0.063665
siesta:    190   -0.000641   -0.595063   -0.338286
siesta:    191   -0.625137    0.625436    0.006978
siesta:    192    0.593823   -0.000336   -0.337962
siesta:    193    0.623271    0.624683    0.008206
siesta:    194   -0.595782   -0.001487   -0.343144
siesta:    195    0.624663   -0.624029    0.010252
siesta:    196   -0.627015   -0.625272    0.007802
siesta:    197    0.003929    0.002890    0.688837
siesta:    198    0.000512    0.594018   -0.343050
siesta:    199    0.273815   -0.274495   -0.253117
siesta:    200   -0.273842   -0.274965   -0.248567
siesta:    201   -0.275072    0.274440   -0.244884
siesta:    202    0.274398    0.273331   -0.247411
siesta: ----------------------------------------
siesta:    Tot    0.028391    0.019223   -0.059771

siesta: Stress tensor (static) (eV/Ang**3):
siesta:     0.000396    0.000004    0.000010
siesta:     0.000004    0.000450   -0.000023
siesta:     0.000010   -0.000023    0.001101

siesta: Cell volume =      87724.536210 Ang**3

siesta: Pressure (static):
siesta:                Solid            Molecule  Units
siesta:          -0.00000707         -0.00000001  Ry/Bohr**3
siesta:          -0.00064899         -0.00000108  eV/Ang**3
siesta:          -1.03980732         -0.00173821  kBar
(Free)E+ p_basis*V_orbitals  =     -117799.614053
(Free)Eharris+ p_basis*V_orbitals  =     -117799.614056
siesta: Total spin polarization (x,y,z) =     0.003591   -0.001438    0.012837
siesta: S , {S} =     0.013407    0.003591   -0.001438    0.012837

siesta: Electric dipole (a.u.)  =   -0.031837    1.424420    0.666871
siesta: Electric dipole (Debye) =   -0.080923    3.620518    1.695019

dhscf: Vacuum level (max, mean) =    3.641014    0.021403 eV

timer: Elapsed wall time (sec) =  509171.117
timer: CPU execution times (sec):

Routine            Calls   Time/call    Tot.time        %
siesta                 1  509131.274  509131.274   100.00
Setup                  1       0.382       0.382     0.00
bands                  1       0.000       0.000     0.00
KSV_init               1       0.000       0.000     0.00
IterGeom               1  509078.267  509078.267    99.99
state_init             1       2.361       2.361     0.00
hsparse                1       0.049       0.049     0.00
overlap                1       2.227       2.227     0.00
Setup_H0               1      58.221      58.221     0.01
naefs                  2       0.002       0.005     0.00
MolMec                 2       0.000       0.000     0.00
kinefsm                2       1.162       2.325     0.00
nlefsm                 2       6.916      13.832     0.00
spinorb                2       0.258       0.517     0.00
DHSCF_Init             1      42.540      42.540     0.01
DHSCF1                 1       0.440       0.440     0.00
INITMESH               1       0.000       0.000     0.00
DHSCF2                 1      42.099      42.099     0.01
REMESH                 1       5.996       5.996     0.00
REORD                759       0.307     233.188     0.05
PHION                  1      15.273      15.273     0.00
COMM_BSC             754       0.307     231.519     0.05
POISON                95      13.668    1298.478     0.26
fft                  190       5.572    1058.647     0.21
IterSCF               91    5592.235  508893.372    99.95
setup_H               92      49.696    4571.996     0.90
DHSCF                 94      50.049    4704.617     0.92
DHSCF3                94      49.387    4642.335     0.91
rhoofd                94       9.399     883.526     0.17
CellXC                94       5.080     477.476     0.09
cellXC                94       5.080     477.476     0.09
vmat                  93       7.536     700.805     0.14
writeHSX              93       0.104       9.631     0.00
compute_dm            91    5541.870  504310.182    99.05
diagon                91    5541.857  504308.949    99.05
cdiag               4914      72.156  354575.226    69.64
cdiag1              4914       6.909   33948.952     6.67
cdiag2              4914      16.636   81748.841    16.06
cdiag3              4914      42.758  210114.041    41.27
cdiag4              4914       5.853   28762.558     5.65
MIXER                 90       0.091       8.146     0.00
PostSCF                1     124.250     124.250     0.02
DHSCF4                 1      62.281      62.281     0.01
dfscf                  1      50.844      50.844     0.01
overfsm                1       0.125       0.125     0.00
state_analysis         1       0.000       0.000     0.00
siesta_move            1       0.000       0.000     0.00
Analysis               1      52.562      52.562     0.01
optical                1       0.000       0.000     0.00
  
>> End of run:  29-JAN-2024  14:54:20
Job completed
