
                           ***********************       
                           *  WELCOME TO SIESTA  *       
                           ***********************       

reinit: Reading from standard input
reinit: Dumped input in INPUT_TMP.73457
************************** Dump of input data file ****************************
SystemName  em
SystemLabel em
==================================================
==================================================
# SPECIES AND BASIS
# Number of species
NumberOfSpecies 5
%block ChemicalSpeciesLabel
  1   79  Au
  2    7  N
  3    6  C
  4    1  H
  5    8  O
%endblock ChemicalSpeciesLabel
%block    PAO.BasisSizes
  Au        SZ
   N        DZP
   C        DZP
   H        DZP
   O        DZP
%endblock PAO.BasisSizes
%block PS.lmax
  Au  2
%endblock PS.lmax
==================================================
==================================================
# K-points
%block kgrid_Monkhorst_Pack
3   0   0   0.0
0   3   0   0.0
0   0   3   0.0
%endblock kgrid_Monkhorst_Pack
T CELL AND ATOMIC POSITIONS
==================================================
==================================================
# UNIT CELL AND ATOMIC POSITIONS
# UNIT CELL
LatticeConstant       1.00 Ang
%block LatticeVectors
30.00000000   0.00000000000   0.0000000000
0.000000000   30.0000000000   0.0000000000
0.000000000   0.00000000000  97.4717069000
%endblock LatticeVectors
# Atomic coordinates
NumberOfAtoms 193
AtomicCoordinatesFormat ScaledCartesian
%block AtomicCoordinatesAndAtomicSpecies < ../em.fdf
==================================================
==================================================
# General variables
#ElectronicTemperature  100 K
MeshCutoff           350. Ry
xc.functional         LDA           # Exchange-correlation functional
xc.authors            CA
SpinPolarized .true.
SolutionMethod diagon
#SolutionMethod Transiesta
NetCharge		-1
==================================================
==================================================
# SCF variables
DM.MixSCF1   T
MaxSCFIterations      300           # Maximum number of SCF iter
DM.MixingWeight       0.03          # New DM amount for next SCF cycle
DM.Tolerance          1.d-4         # Tolerance in maximum difference
DM.UseSaveDM          true          # to use continuation files
DM.NumberPulay         5
Diag.DivideAndConquer  no
Diag.ParallelOverK     yes
==================================================
==================================================
# MD variables
MD.FinalTimeStep 1
MD.TypeOfRun CG
MD.NumCGsteps     000
MD.UseSaveXV      .true.
==================================================
==================================================
# Output variables
WriteMullikenPop                1
WriteBands                      .false.
SaveRho                         .false.
SaveDeltaRho                    .false.
SaveHS                          .true.
SaveElectrostaticPotential      True
SaveTotalPotential              no
WriteCoorXmol                   .true.
WriteMDXmol                     .true.
WriteMDhistory                  .false.
WriteEigenvalues                yes
==================================================
==================================================
# Transiesta information
# GF OPTIONS
TS.ComplexContour.Emin    -30.0 eV
TS.ComplexContour.NPoles       10
TS.ComplexContour.NCircle      30
TS.ComplexContour.NLine        10
# BIAS OPTIONS
TS.biasContour.NumPoints       00
# TS OPTIONS
TS.Voltage 0.000000 eV
# TBT OPTIONS
TS.TBT.Emin -5.0 eV
TS.TBT.Emax +5.0 eV
TS.TBT.NPoints 500
TS.TBT.NEigen 3
TS.TBT.Eta        0.000001 Ry
# Write hamiltonian
TS.SaveHS   .true.
# LEFT ELECTRODE
TS.HSFileLeft  ./Au_Elec_ABC.TSHS
#TS.ReplicateA1Left    1
#TS.ReplicateA2Left    1
TS.NumUsedAtomsLeft    9
TS.BufferAtomsLeft     0
# RIGHT ELECTRODE
TS.HSFileRight  ./Au_Elec_ABC.TSHS
#TS.ReplicateA1Right   1
#TS.ReplicateA2Right   1
TS.NumUsedAtomsRight   9
TS.BufferAtomsRight    0
==================================================
==================================================
************************** End of input data file *****************************

reinit: -----------------------------------------------------------------------
reinit: System Name: em
reinit: -----------------------------------------------------------------------
reinit: System Label: em
reinit: -----------------------------------------------------------------------
Siesta Version: siesta-4.1--736
Architecture  : unknown
Compiler flags: gfortran -O2 -fPIC -ftree-vectorize -fallow-argument-mismatch
PP flags      : -DFC_HAVE_ABORT
Libraries     : libsiestaLAPACK.a libsiestaBLAS.a
SERIAL version

* Running in serial mode
>> Start of run:   4-DEC-2023  19:07:24

initatom: Reading input for the pseudopotentials and atomic orbitals ----------
Species number:   1 Atomic number:   79 Label: Au
Species number:   2 Atomic number:    7 Label: N
Species number:   3 Atomic number:    6 Label: C
Species number:   4 Atomic number:    1 Label: H
Species number:   5 Atomic number:    8 Label: O

Ground state valence configuration:   6s01  5d10
Reading pseudopotential information in formatted form from Au.psf

Valence configuration for pseudopotential generation:
6s( 1.00) rc: 2.60
6p( 0.00) rc: 2.77
5d(10.00) rc: 2.60
5f( 0.00) rc: 2.60
Ground state valence configuration:   2s02  2p03
Reading pseudopotential information in formatted form from N.psf

Valence configuration for pseudopotential generation:
2s( 2.00) rc: 1.48
2p( 3.00) rc: 1.48
3d( 0.00) rc: 1.48
4f( 0.00) rc: 1.48
Ground state valence configuration:   2s02  2p02
Reading pseudopotential information in formatted form from C.psf

Valence configuration for pseudopotential generation:
2s( 2.00) rc: 1.54
2p( 2.00) rc: 1.54
3d( 0.00) rc: 1.54
4f( 0.00) rc: 1.54
Ground state valence configuration:   1s01
Reading pseudopotential information in formatted form from H.psf

Valence configuration for pseudopotential generation:
1s( 1.00) rc: 1.31
2p( 0.00) rc: 1.31
3d( 0.00) rc: 0.37
4f( 0.00) rc: 1.31
Ground state valence configuration:   2s02  2p04
Reading pseudopotential information in formatted form from O.psf

Valence configuration for pseudopotential generation:
2s( 2.00) rc: 1.47
2p( 4.00) rc: 1.47
3d( 0.00) rc: 1.47
4f( 0.00) rc: 1.47
resizes: Read basis size for species Au = sz                  
resizes: Read basis size for species N = dzp                 
resizes: Read basis size for species C = dzp                 
resizes: Read basis size for species H = dzp                 
resizes: Read basis size for species O = dzp                 
relmxkb: Read Max KB Ang. Momentum=    2 for species Au
For N, standard SIESTA heuristics set lmxkb to 3
 (one more than the basis l, including polarization orbitals).
Use PS.lmax or PS.KBprojectors blocks to override.
For C, standard SIESTA heuristics set lmxkb to 3
 (one more than the basis l, including polarization orbitals).
Use PS.lmax or PS.KBprojectors blocks to override.
For H, standard SIESTA heuristics set lmxkb to 2
 (one more than the basis l, including polarization orbitals).
Use PS.lmax or PS.KBprojectors blocks to override.
For O, standard SIESTA heuristics set lmxkb to 3
 (one more than the basis l, including polarization orbitals).
Use PS.lmax or PS.KBprojectors blocks to override.

<basis_specs>
===============================================================================
Au                   Z=  79    Mass=  196.97        Charge= 0.17977+309
Lmxo=2 Lmxkb= 2    BasisType=split      Semic=F
L=0  Nsemic=0  Cnfigmx=6
          n=1  nzeta=1  polorb=0
            splnorm:   0.15000    
               vcte:    0.0000    
               rinn:    0.0000    
               qcoe:    0.0000    
               qyuk:    0.0000    
               qwid:   0.10000E-01
                rcs:    0.0000    
            lambdas:    1.0000    
L=1  Nsemic=0  Cnfigmx=6
L=2  Nsemic=0  Cnfigmx=5
          n=1  nzeta=1  polorb=0
            splnorm:   0.15000    
               vcte:    0.0000    
               rinn:    0.0000    
               qcoe:    0.0000    
               qyuk:    0.0000    
               qwid:   0.10000E-01
                rcs:    0.0000    
            lambdas:    1.0000    
-------------------------------------------------------------------------------
L=0  Nkbl=1  erefs: 0.17977+309
L=1  Nkbl=1  erefs: 0.17977+309
L=2  Nkbl=1  erefs: 0.17977+309
===============================================================================
</basis_specs>

atom: Called for Au                    (Z =  79)

read_vps: Pseudopotential generation method:
read_vps: ATM3      Troullier-Martins                       
Total valence charge:   11.00000

xc_check: Exchange-correlation functional:
xc_check: Ceperley-Alder
V l=0 = -2*Zval/r beyond r=  3.8789
V l=1 = -2*Zval/r beyond r=  3.8789
V l=2 = -2*Zval/r beyond r=  3.8789
All V_l potentials equal beyond r=  2.7334
This should be close to max(r_c) in ps generation
All pots = -2*Zval/r beyond r=  3.8789
Using large-core scheme for Vlocal

atom: Estimated core radius    3.87887

atom: Including non-local core corrections could be a good idea
atom: Maximum radius for 4*pi*r*r*local-pseudopot. charge    4.23357
atom: Maximum radius for r*vlocal+2*Zval:    3.92766
GHOST: No ghost state for L =  0
GHOST: No ghost state for L =  1
GHOST: No ghost state for L =  2

KBgen: Kleinman-Bylander projectors: 
   l= 0   rc=  2.837834   el= -0.325216   Ekb=  3.092226   kbcos=  0.236106
   l= 1   rc=  2.837834   el= -0.069662   Ekb=  1.440738   kbcos=  0.234618
   l= 2   rc=  2.802581   el= -0.609192   Ekb= -6.338546   kbcos= -0.737961

KBgen: Total number of  Kleinman-Bylander projectors:    9
atom: -------------------------------------------------------------------------

atom: SANKEY-TYPE ORBITALS:

SPLIT: Orbitals with angular momentum L= 0

SPLIT: Basis orbitals for state 6s

SPLIT: PAO cut-off radius determined from an
SPLIT: energy shift=  0.020000 Ry

   izeta = 1
                 lambda =    1.000000
                     rc =    6.723087
                 energy =   -0.304906
                kinetic =    0.318820
    potential(screened) =   -0.623726
       potential(ionic) =   -7.635970

SPLIT: Orbitals with angular momentum L= 2

SPLIT: Basis orbitals for state 5d

SPLIT: PAO cut-off radius determined from an
SPLIT: energy shift=  0.020000 Ry

   izeta = 1
                 lambda =    1.000000
                     rc =    4.180976
                 energy =   -0.591057
                kinetic =    5.026279
    potential(screened) =   -5.617337
       potential(ionic) =  -16.519179
atom: Total number of Sankey-type orbitals:  6

atm_pop: Valence configuration (for local Pseudopot. screening):
 6s( 1.00)                                                            
 6p( 0.00)                                                            
 5d(10.00)                                                            
Vna: chval, zval:   11.00000  11.00000

Vna:  Cut-off radius for the neutral-atom potential:   6.723087

atom: _________________________________________________________________________

<basis_specs>
===============================================================================
N                    Z=   7    Mass=  14.010        Charge= 0.17977+309
Lmxo=1 Lmxkb= 3    BasisType=split      Semic=F
L=0  Nsemic=0  Cnfigmx=2
          n=1  nzeta=2  polorb=0
            splnorm:   0.15000    
               vcte:    0.0000    
               rinn:    0.0000    
               qcoe:    0.0000    
               qyuk:    0.0000    
               qwid:   0.10000E-01
                rcs:    0.0000      0.0000    
            lambdas:    1.0000      1.0000    
L=1  Nsemic=0  Cnfigmx=2
          n=1  nzeta=2  polorb=1
            splnorm:   0.15000    
               vcte:    0.0000    
               rinn:    0.0000    
               qcoe:    0.0000    
               qyuk:    0.0000    
               qwid:   0.10000E-01
                rcs:    0.0000      0.0000    
            lambdas:    1.0000      1.0000    
-------------------------------------------------------------------------------
L=0  Nkbl=1  erefs: 0.17977+309
L=1  Nkbl=1  erefs: 0.17977+309
L=2  Nkbl=1  erefs: 0.17977+309
L=3  Nkbl=1  erefs: 0.17977+309
===============================================================================
</basis_specs>

atom: Called for N                     (Z =   7)

read_vps: Pseudopotential generation method:
read_vps: ATM3      Troullier-Martins                       
Total valence charge:    5.00000

xc_check: Exchange-correlation functional:
xc_check: Ceperley-Alder
V l=0 = -2*Zval/r beyond r=  1.4606
V l=1 = -2*Zval/r beyond r=  1.4606
V l=2 = -2*Zval/r beyond r=  1.4606
V l=3 = -2*Zval/r beyond r=  1.4606
All V_l potentials equal beyond r=  1.4606
This should be close to max(r_c) in ps generation
All pots = -2*Zval/r beyond r=  1.4606

VLOCAL1: 99.0% of the norm of Vloc inside     20.347 Ry
VLOCAL1: 99.9% of the norm of Vloc inside     46.372 Ry
atom: Maximum radius for 4*pi*r*r*local-pseudopot. charge    1.76189
atom: Maximum radius for r*vlocal+2*Zval:    1.53550
GHOST: No ghost state for L =  0
GHOST: No ghost state for L =  1
GHOST: No ghost state for L =  2
GHOST: No ghost state for L =  3

KBgen: Kleinman-Bylander projectors: 
   l= 0   rc=  1.634559   el= -1.352239   Ekb=  4.901185   kbcos=  0.337501
   l= 1   rc=  1.614250   el= -0.532623   Ekb= -5.544141   kbcos= -0.433040
   l= 2   rc=  1.740002   el=  0.002346   Ekb= -1.331777   kbcos= -0.007563
   l= 3   rc=  1.806505   el=  0.003449   Ekb= -0.515466   kbcos= -0.000994

KBgen: Total number of  Kleinman-Bylander projectors:   16
atom: -------------------------------------------------------------------------

atom: SANKEY-TYPE ORBITALS:
atom: Selected multiple-zeta basis: split     

SPLIT: Orbitals with angular momentum L= 0

SPLIT: Basis orbitals for state 2s

SPLIT: PAO cut-off radius determined from an
SPLIT: energy shift=  0.020000 Ry

   izeta = 1
                 lambda =    1.000000
                     rc =    3.683980
                 energy =   -1.333780
                kinetic =    1.203249
    potential(screened) =   -2.537029
       potential(ionic) =   -8.126274

   izeta = 2
                 rmatch =    2.905100
              splitnorm =    0.150000
                 energy =   -1.138702
                kinetic =    1.810192
    potential(screened) =   -2.948894
       potential(ionic) =   -8.945013

SPLIT: Orbitals with angular momentum L= 1

SPLIT: Basis orbitals for state 2p

SPLIT: PAO cut-off radius determined from an
SPLIT: energy shift=  0.020000 Ry

   izeta = 1
                 lambda =    1.000000
                     rc =    4.280232
                 energy =   -0.512466
                kinetic =    3.598849
    potential(screened) =   -4.111315
       potential(ionic) =   -9.550563

   izeta = 2
                 rmatch =    2.941647
              splitnorm =    0.150000
                 energy =   -0.292244
                kinetic =    5.357522
    potential(screened) =   -5.649767
       potential(ionic) =  -11.693436

POLgen: Perturbative polarization orbital with L=  2

POLgen: Polarization orbital for state 2p

   izeta = 1
                     rc =    4.280232
                 energy =    1.826084
                kinetic =    3.687342
    potential(screened) =   -1.861257
       potential(ionic) =   -6.363951
atom: Total number of Sankey-type orbitals: 13

atm_pop: Valence configuration (for local Pseudopot. screening):
 2s( 2.00)                                                            
 2p( 3.00)                                                            
Vna: chval, zval:    5.00000   5.00000

Vna:  Cut-off radius for the neutral-atom potential:   4.280232

atom: _________________________________________________________________________

<basis_specs>
===============================================================================
C                    Z=   6    Mass=  12.010        Charge= 0.17977+309
Lmxo=1 Lmxkb= 3    BasisType=split      Semic=F
L=0  Nsemic=0  Cnfigmx=2
          n=1  nzeta=2  polorb=0
            splnorm:   0.15000    
               vcte:    0.0000    
               rinn:    0.0000    
               qcoe:    0.0000    
               qyuk:    0.0000    
               qwid:   0.10000E-01
                rcs:    0.0000      0.0000    
            lambdas:    1.0000      1.0000    
L=1  Nsemic=0  Cnfigmx=2
          n=1  nzeta=2  polorb=1
            splnorm:   0.15000    
               vcte:    0.0000    
               rinn:    0.0000    
               qcoe:    0.0000    
               qyuk:    0.0000    
               qwid:   0.10000E-01
                rcs:    0.0000      0.0000    
            lambdas:    1.0000      1.0000    
-------------------------------------------------------------------------------
L=0  Nkbl=1  erefs: 0.17977+309
L=1  Nkbl=1  erefs: 0.17977+309
L=2  Nkbl=1  erefs: 0.17977+309
L=3  Nkbl=1  erefs: 0.17977+309
===============================================================================
</basis_specs>

atom: Called for C                     (Z =   6)

read_vps: Pseudopotential generation method:
read_vps: ATM3      Troullier-Martins                       
Total valence charge:    4.00000

xc_check: Exchange-correlation functional:
xc_check: Ceperley-Alder
V l=0 = -2*Zval/r beyond r=  1.5227
V l=1 = -2*Zval/r beyond r=  1.5227
V l=2 = -2*Zval/r beyond r=  1.5227
V l=3 = -2*Zval/r beyond r=  1.5038
All V_l potentials equal beyond r=  1.5227
This should be close to max(r_c) in ps generation
All pots = -2*Zval/r beyond r=  1.5227

VLOCAL1: 99.0% of the norm of Vloc inside     18.722 Ry
VLOCAL1: 99.9% of the norm of Vloc inside     42.668 Ry
atom: Maximum radius for 4*pi*r*r*local-pseudopot. charge    1.83678
atom: Maximum radius for r*vlocal+2*Zval:    1.58088
GHOST: No ghost state for L =  0
GHOST: No ghost state for L =  1
GHOST: No ghost state for L =  2
GHOST: No ghost state for L =  3

KBgen: Kleinman-Bylander projectors: 
   l= 0   rc=  1.747182   el= -1.001948   Ekb=  4.950286   kbcos=  0.319819
   l= 1   rc=  1.747182   el= -0.398598   Ekb= -4.108613   kbcos= -0.367053
   l= 2   rc=  1.930978   el=  0.002326   Ekb= -1.042946   kbcos= -0.009366
   l= 3   rc=  2.055542   el=  0.003420   Ekb= -0.408633   kbcos= -0.001262

KBgen: Total number of  Kleinman-Bylander projectors:   16
atom: -------------------------------------------------------------------------

atom: SANKEY-TYPE ORBITALS:
atom: Selected multiple-zeta basis: split     

SPLIT: Orbitals with angular momentum L= 0

SPLIT: Basis orbitals for state 2s

SPLIT: PAO cut-off radius determined from an
SPLIT: energy shift=  0.020000 Ry

   izeta = 1
                 lambda =    1.000000
                     rc =    4.191849
                 energy =   -0.983897
                kinetic =    0.880927
    potential(screened) =   -1.864824
       potential(ionic) =   -5.475687

   izeta = 2
                 rmatch =    3.431921
              splitnorm =    0.150000
                 energy =   -0.853083
                kinetic =    1.298222
    potential(screened) =   -2.151305
       potential(ionic) =   -5.995890

SPLIT: Orbitals with angular momentum L= 1

SPLIT: Basis orbitals for state 2p

SPLIT: PAO cut-off radius determined from an
SPLIT: energy shift=  0.020000 Ry

   izeta = 1
                 lambda =    1.000000
                     rc =    4.870301
                 energy =   -0.379093
                kinetic =    2.540023
    potential(screened) =   -2.919116
       potential(ionic) =   -6.427960

   izeta = 2
                 rmatch =    3.475094
              splitnorm =    0.150000
                 energy =   -0.215057
                kinetic =    3.814571
    potential(screened) =   -4.029628
       potential(ionic) =   -7.920250

POLgen: Perturbative polarization orbital with L=  2

POLgen: Polarization orbital for state 2p

   izeta = 1
                     rc =    4.870301
                 energy =    1.280996
                kinetic =    2.631310
    potential(screened) =   -1.350314
       potential(ionic) =   -4.295640
atom: Total number of Sankey-type orbitals: 13

atm_pop: Valence configuration (for local Pseudopot. screening):
 2s( 2.00)                                                            
 2p( 2.00)                                                            
Vna: chval, zval:    4.00000   4.00000

Vna:  Cut-off radius for the neutral-atom potential:   4.870301

atom: _________________________________________________________________________

<basis_specs>
===============================================================================
H                    Z=   1    Mass=  1.0100        Charge= 0.17977+309
Lmxo=0 Lmxkb= 2    BasisType=split      Semic=F
L=0  Nsemic=0  Cnfigmx=1
          n=1  nzeta=2  polorb=1
            splnorm:   0.15000    
               vcte:    0.0000    
               rinn:    0.0000    
               qcoe:    0.0000    
               qyuk:    0.0000    
               qwid:   0.10000E-01
                rcs:    0.0000      0.0000    
            lambdas:    1.0000      1.0000    
-------------------------------------------------------------------------------
L=0  Nkbl=1  erefs: 0.17977+309
L=1  Nkbl=1  erefs: 0.17977+309
L=2  Nkbl=1  erefs: 0.17977+309
===============================================================================
</basis_specs>

atom: Called for H                     (Z =   1)

read_vps: Pseudopotential generation method:
read_vps: ATM3      Troullier-Martins                       
Total valence charge:    1.00000

xc_check: Exchange-correlation functional:
xc_check: Ceperley-Alder
V l=0 = -2*Zval/r beyond r=  1.2977
V l=1 = -2*Zval/r beyond r=  1.2815
V l=2 = -2*Zval/r beyond r=  1.1307
All V_l potentials equal beyond r=  1.2977
This should be close to max(r_c) in ps generation
All pots = -2*Zval/r beyond r=  1.2977

VLOCAL1: 99.0% of the norm of Vloc inside     25.776 Ry
VLOCAL1: 99.9% of the norm of Vloc inside     58.745 Ry
atom: Maximum radius for 4*pi*r*r*local-pseudopot. charge    1.52711
atom: Maximum radius for r*vlocal+2*Zval:    1.28155
GHOST: No ghost state for L =  0
GHOST: No ghost state for L =  1
GHOST: No ghost state for L =  2

KBgen: Kleinman-Bylander projectors: 
   l= 0   rc=  1.434438   el= -0.467325   Ekb= -1.940326   kbcos= -0.353040
   l= 1   rc=  1.508111   el=  0.001430   Ekb= -0.480826   kbcos= -0.024144
   l= 2   rc=  1.527112   el=  0.002365   Ekb= -0.479392   kbcos= -0.001656

KBgen: Total number of  Kleinman-Bylander projectors:    9
atom: -------------------------------------------------------------------------

atom: SANKEY-TYPE ORBITALS:
atom: Selected multiple-zeta basis: split     

SPLIT: Orbitals with angular momentum L= 0

SPLIT: Basis orbitals for state 1s

SPLIT: PAO cut-off radius determined from an
SPLIT: energy shift=  0.020000 Ry

   izeta = 1
                 lambda =    1.000000
                     rc =    4.828263
                 energy =   -0.449375
                kinetic =    0.925762
    potential(screened) =   -1.375137
       potential(ionic) =   -1.911235

   izeta = 2
                 rmatch =    3.854947
              splitnorm =    0.150000
                 energy =   -0.336149
                kinetic =    1.498089
    potential(screened) =   -1.834238
       potential(ionic) =   -2.406110

POLgen: Perturbative polarization orbital with L=  1

POLgen: Polarization orbital for state 1s

   izeta = 1
                     rc =    4.828263
                 energy =    0.707053
                kinetic =    1.398668
    potential(screened) =   -0.691614
       potential(ionic) =   -1.171973
atom: Total number of Sankey-type orbitals:  5

atm_pop: Valence configuration (for local Pseudopot. screening):
 1s( 1.00)                                                            
Vna: chval, zval:    1.00000   1.00000

Vna:  Cut-off radius for the neutral-atom potential:   4.828263

atom: _________________________________________________________________________

<basis_specs>
===============================================================================
O                    Z=   8    Mass=  16.000        Charge= 0.17977+309
Lmxo=1 Lmxkb= 3    BasisType=split      Semic=F
L=0  Nsemic=0  Cnfigmx=2
          n=1  nzeta=2  polorb=0
            splnorm:   0.15000    
               vcte:    0.0000    
               rinn:    0.0000    
               qcoe:    0.0000    
               qyuk:    0.0000    
               qwid:   0.10000E-01
                rcs:    0.0000      0.0000    
            lambdas:    1.0000      1.0000    
L=1  Nsemic=0  Cnfigmx=2
          n=1  nzeta=2  polorb=1
            splnorm:   0.15000    
               vcte:    0.0000    
               rinn:    0.0000    
               qcoe:    0.0000    
               qyuk:    0.0000    
               qwid:   0.10000E-01
                rcs:    0.0000      0.0000    
            lambdas:    1.0000      1.0000    
-------------------------------------------------------------------------------
L=0  Nkbl=1  erefs: 0.17977+309
L=1  Nkbl=1  erefs: 0.17977+309
L=2  Nkbl=1  erefs: 0.17977+309
L=3  Nkbl=1  erefs: 0.17977+309
===============================================================================
</basis_specs>

atom: Called for O                     (Z =   8)

read_vps: Pseudopotential generation method:
read_vps: ATM3      Troullier-Martins                       
Total valence charge:    6.00000

xc_check: Exchange-correlation functional:
xc_check: Ceperley-Alder
V l=0 = -2*Zval/r beyond r=  1.4482
V l=1 = -2*Zval/r beyond r=  1.4482
V l=2 = -2*Zval/r beyond r=  1.4482
V l=3 = -2*Zval/r beyond r=  1.4482
All V_l potentials equal beyond r=  1.4482
This should be close to max(r_c) in ps generation
All pots = -2*Zval/r beyond r=  1.4482

VLOCAL1: 99.0% of the norm of Vloc inside     20.696 Ry
VLOCAL1: 99.9% of the norm of Vloc inside     47.167 Ry
atom: Maximum radius for 4*pi*r*r*local-pseudopot. charge    1.74697
atom: Maximum radius for r*vlocal+2*Zval:    1.52250
GHOST: No ghost state for L =  0
GHOST: No ghost state for L =  1
GHOST: No ghost state for L =  2
GHOST: No ghost state for L =  3

KBgen: Kleinman-Bylander projectors: 
   l= 0   rc=  1.620715   el= -1.742414   Ekb=  4.456556   kbcos=  0.290194
   l= 1   rc=  1.600578   el= -0.676589   Ekb= -7.144994   kbcos= -0.499132
   l= 2   rc=  1.703827   el=  0.002386   Ekb= -1.602359   kbcos= -0.006666
   l= 3   rc=  1.746967   el=  0.003508   Ekb= -0.610601   kbcos= -0.000909

KBgen: Total number of  Kleinman-Bylander projectors:   16
atom: -------------------------------------------------------------------------

atom: SANKEY-TYPE ORBITALS:
atom: Selected multiple-zeta basis: split     

SPLIT: Orbitals with angular momentum L= 0

SPLIT: Basis orbitals for state 2s

SPLIT: PAO cut-off radius determined from an
SPLIT: energy shift=  0.020000 Ry

   izeta = 1
                 lambda =    1.000000
                     rc =    3.305093
                 energy =   -1.723753
                kinetic =    1.583904
    potential(screened) =   -3.307656
       potential(ionic) =  -11.288993

   izeta = 2
                 rmatch =    2.510382
              splitnorm =    0.150000
                 energy =   -1.476627
                kinetic =    2.379421
    potential(screened) =   -3.856049
       potential(ionic) =  -12.446732

SPLIT: Orbitals with angular momentum L= 1

SPLIT: Basis orbitals for state 2p

SPLIT: PAO cut-off radius determined from an
SPLIT: energy shift=  0.020000 Ry

   izeta = 1
                 lambda =    1.000000
                     rc =    3.937239
                 energy =   -0.658849
                kinetic =    4.693978
    potential(screened) =   -5.352826
       potential(ionic) =  -13.082398

   izeta = 2
                 rmatch =    2.541963
              splitnorm =    0.150000
                 energy =   -0.363305
                kinetic =    7.018769
    potential(screened) =   -7.382074
       potential(ionic) =  -16.005408

POLgen: Perturbative polarization orbital with L=  2

POLgen: Polarization orbital for state 2p

   izeta = 1
                     rc =    3.937239
                 energy =    2.394514
                kinetic =    4.808418
    potential(screened) =   -2.413904
       potential(ionic) =   -8.736781
atom: Total number of Sankey-type orbitals: 13

atm_pop: Valence configuration (for local Pseudopot. screening):
 2s( 2.00)                                                            
 2p( 4.00)                                                            
Vna: chval, zval:    6.00000   6.00000

Vna:  Cut-off radius for the neutral-atom potential:   3.937239

atom: _________________________________________________________________________

prinput: Basis input ----------------------------------------------------------

PAO.BasisType split     

%block ChemicalSpeciesLabel
    1   79 Au                      # Species index, atomic number, species label
    2    7 N                       # Species index, atomic number, species label
    3    6 C                       # Species index, atomic number, species label
    4    1 H                       # Species index, atomic number, species label
    5    8 O                       # Species index, atomic number, species label
%endblock ChemicalSpeciesLabel

%block PAO.Basis                 # Define Basis set
Au                    2                    # Species label, number of l-shells
 n=6   0   1                         # n, l, Nzeta 
   6.723   
   1.000   
 n=5   2   1                         # n, l, Nzeta 
   4.181   
   1.000   
N                     2                    # Species label, number of l-shells
 n=2   0   2                         # n, l, Nzeta 
   3.684      2.905   
   1.000      1.000   
 n=2   1   2 P   1                   # n, l, Nzeta, Polarization, NzetaPol
   4.280      2.942   
   1.000      1.000   
C                     2                    # Species label, number of l-shells
 n=2   0   2                         # n, l, Nzeta 
   4.192      3.432   
   1.000      1.000   
 n=2   1   2 P   1                   # n, l, Nzeta, Polarization, NzetaPol
   4.870      3.475   
   1.000      1.000   
H                     1                    # Species label, number of l-shells
 n=1   0   2 P   1                   # n, l, Nzeta, Polarization, NzetaPol
   4.828      3.855   
   1.000      1.000   
O                     2                    # Species label, number of l-shells
 n=2   0   2                         # n, l, Nzeta 
   3.305      2.510   
   1.000      1.000   
 n=2   1   2 P   1                   # n, l, Nzeta, Polarization, NzetaPol
   3.937      2.542   
   1.000      1.000   
%endblock PAO.Basis

prinput: ----------------------------------------------------------------------

coor:   Atomic-coordinates input format  =     Cartesian coordinates
coor:                                          (in units of alat)

siesta: WARNING: XV file not found

siesta: Atomic coordinates (Bohr) and species
siesta:      2.71925   2.71925   0.00000  1        1
siesta:      8.15774   2.71925   0.00000  1        2
siesta:      8.15774   8.15774   0.00000  1        3
siesta:      2.71925   8.15774   0.00000  1        4
siesta:      5.43849   0.00000   3.84559  1        5
siesta:      5.43849   5.43849   3.84559  1        6
siesta:      2.71925   2.71925   7.69119  1        7
siesta:      8.15774   2.71925   7.69119  1        8
siesta:     10.87698   5.43849   3.84559  1        9
siesta:      8.15774   8.15774   7.69119  1       10
siesta:      0.00000   5.43849   3.84559  1       11
siesta:      2.71925   8.15774   7.69119  1       12
siesta:      5.43849  10.87698   3.84559  1       13
siesta:      5.43849   0.00000  11.53678  1       14
siesta:      5.43849   5.43849  11.53678  1       15
siesta:      2.71925   2.71925  15.38238  1       16
siesta:      8.15774   2.71925  15.38238  1       17
siesta:     10.87698   5.43849  11.53678  1       18
siesta:      8.15774   8.15774  15.38238  1       19
siesta:      0.00000   5.43849  11.53678  1       20
siesta:      2.71925   8.15774  15.38238  1       21
siesta:      5.43849  10.87698  11.53678  1       22
siesta:      5.43849   0.00000  19.22797  1       23
siesta:      5.43849   5.43849  19.22797  1       24
siesta:     10.87698   5.43849  19.22797  1       25
siesta:      0.00000   5.43849  19.22797  1       26
siesta:      5.43849  10.87698  19.22797  1       27
siesta:      2.71925   2.71925  23.07357  1       28
siesta:      8.15774   2.71925  23.07357  1       29
siesta:      8.15774   8.15774  23.07357  1       30
siesta:      2.71925   8.15774  23.07357  1       31
siesta:      5.43849   0.00000  26.91916  1       32
siesta:      5.43849   5.43849  26.91916  1       33
siesta:      2.71925   2.71925  30.76475  1       34
siesta:      8.15774   2.71925  30.76475  1       35
siesta:     10.87698   5.43849  26.91916  1       36
siesta:      8.15774   8.15774  30.76475  1       37
siesta:      0.00000   5.43849  26.91916  1       38
siesta:      2.71925   8.15774  30.76475  1       39
siesta:      5.43849  10.87698  26.91916  1       40
siesta:      5.43849   0.00000  34.61035  1       41
siesta:      5.43849   5.43849  34.61035  1       42
siesta:      2.71925   2.71925  38.45594  1       43
siesta:      8.15774   2.71925  38.45594  1       44
siesta:     10.87698   5.43849  34.61035  1       45
siesta:      8.15774   8.15774  38.45594  1       46
siesta:      0.00000   5.43849  34.61035  1       47
siesta:      2.71925   8.15774  38.45594  1       48
siesta:      5.43849  10.87698  34.61035  1       49
siesta:      5.43849   0.00000  42.30154  1       50
siesta:      5.43849   5.43849  42.30154  1       51
siesta:     10.87698   5.43849  42.30154  1       52
siesta:      0.00000   5.43849  42.30154  1       53
siesta:      5.43849  10.87698  42.30154  1       54
siesta:      2.71925   2.71925  46.14713  1       55
siesta:      8.15774   2.71925  46.14713  1       56
siesta:      8.15774   8.15774  46.14713  1       57
siesta:      2.71925   8.15774  46.14713  1       58
siesta:      5.43849   5.43849  49.99272  1       59
siesta:      5.43849   5.43849  55.43121  1       60
siesta:      4.63132   3.30506  58.77052  2       61
siesta:      3.95649   1.52144  58.79387  4       62
siesta:      5.18098   4.75786  61.02616  3       63
siesta:      7.18542   5.22820  60.95526  4       64
siesta:      4.60690   3.24053  63.40113  3       65
siesta:      3.78465   1.06727  63.46270  5       66
siesta:      3.60210   7.16927  61.11868  3       67
siesta:      4.05595   8.21932  62.83295  4       68
siesta:      4.02467   8.32887  59.46947  4       69
siesta:      1.60185   6.67798  61.12228  4       70
siesta:      5.16317   4.71079  65.69146  2       71
siesta:      5.83579   6.48860  65.53581  4       72
siesta:      4.77461   3.68381  68.20044  3       73
siesta:      2.77277   3.22036  68.34845  4       74
siesta:      5.49745   5.59433  70.22521  3       75
siesta:      6.30895   7.73917  69.84563  5       76
siesta:      6.37055   1.31749  68.61259  3       77
siesta:      6.03889   0.59042  70.51224  4       78
siesta:      5.84537  -0.11333  67.22693  4       79
siesta:      8.36357   1.78967  68.39507  4       80
siesta:      5.10473   4.55634  72.77179  2       81
siesta:      4.43385   2.78314  72.97892  4       82
siesta:      5.65439   6.00914  75.02743  3       83
siesta:      7.65884   6.47948  74.95652  4       84
siesta:      5.08032   4.49181  77.40239  3       85
siesta:      4.25807   2.31856  77.46396  5       86
siesta:      4.07552   8.42055  75.11994  3       87
siesta:      4.52937   9.47060  76.83422  4       88
siesta:      4.49809   9.58015  73.47073  4       89
siesta:      2.07527   7.92927  75.12355  4       90
siesta:      5.63659   5.96207  79.69273  2       91
siesta:      6.30921   7.73988  79.53708  4       92
siesta:      5.24803   4.93509  82.20170  3       93
siesta:      3.24619   4.47164  82.34971  4       94
siesta:      5.97087   6.84561  84.22648  3       95
siesta:      6.78236   8.99045  83.84690  5       96
siesta:      6.84397   2.56877  82.61385  3       97
siesta:      6.51231   1.84171  84.51350  4       98
siesta:      6.31879   1.13795  81.22819  4       99
siesta:      8.83698   3.04095  82.39633  4      100
siesta:      5.57815   5.80763  86.77306  2      101
siesta:      4.90726   4.03442  86.98018  4      102
siesta:      6.12781   7.26042  89.02869  3      103
siesta:      8.13226   7.73076  88.95779  4      104
siesta:      5.55374   5.74310  91.40366  3      105
siesta:      4.73149   3.56983  91.46523  5      106
siesta:      4.54894   9.67184  89.12121  3      107
siesta:      5.00279  10.72188  90.83548  4      108
siesta:      4.97150  10.83143  87.47200  4      109
siesta:      2.54869   9.18054  89.12481  4      110
siesta:      6.11000   7.21335  93.69399  2      111
siesta:      6.78263   8.99116  93.53834  4      112
siesta:      5.72145   6.18637  96.20297  3      113
siesta:      3.71961   5.72292  96.35098  4      114
siesta:      6.44429   8.09690  98.22774  3      115
siesta:      7.25578  10.24174  97.84816  5      116
siesta:      7.31739   3.82005  96.61512  3      117
siesta:      6.98573   3.09299  98.51477  4      118
siesta:      6.79220   2.38923  95.22946  4      119
siesta:      9.31040   4.29223  96.39760  4      120
siesta:      6.05157   7.05891 100.77432  2      121
siesta:      5.38068   5.28571 100.98145  4      122
siesta:      6.60123   8.51170 103.02996  3      123
siesta:      8.60567   8.98204 102.95905  4      124
siesta:      6.02715   6.99438 105.40493  3      125
siesta:      5.19249   4.78828 105.24612  5      126
siesta:      5.02235  10.92311 103.12247  3      127
siesta:      5.44492  12.08272 101.47327  4      128
siesta:      3.02210  10.43183 103.12608  4      129
siesta:      5.65780  12.39439 105.52278  3      130
siesta:      7.42070  13.98859 105.38834  5      131
siesta:      4.37016  11.91215 107.46659  5      132
siesta:      6.24566   7.57192 107.64773  5      133
siesta:      5.43849   5.43849 110.98704  1      134
siesta:      5.43849   5.43849 116.42553  1      135
siesta:      2.71925   8.15774 120.27112  1      136
siesta:      8.15774   8.15774 120.27112  1      137
siesta:      8.15774   2.71925 120.27112  1      138
siesta:      2.71925   2.71925 120.27112  1      139
siesta:      5.43849  10.87698 124.11672  1      140
siesta:      0.00000   5.43849 124.11672  1      141
siesta:     10.87698   5.43849 124.11672  1      142
siesta:      5.43849   5.43849 124.11672  1      143
siesta:      5.43849   0.00000 124.11672  1      144
siesta:      5.43849  10.87698 131.80791  1      145
siesta:      2.71925   8.15774 127.96231  1      146
siesta:      0.00000   5.43849 131.80791  1      147
siesta:      8.15774   8.15774 127.96231  1      148
siesta:     10.87698   5.43849 131.80791  1      149
siesta:      8.15774   2.71925 127.96231  1      150
siesta:      2.71925   2.71925 127.96231  1      151
siesta:      5.43849   5.43849 131.80791  1      152
siesta:      5.43849   0.00000 131.80791  1      153
siesta:      5.43849  10.87698 139.49909  1      154
siesta:      2.71925   8.15774 135.65350  1      155
siesta:      0.00000   5.43849 139.49909  1      156
siesta:      8.15774   8.15774 135.65350  1      157
siesta:     10.87698   5.43849 139.49909  1      158
siesta:      8.15774   2.71925 135.65350  1      159
siesta:      2.71925   2.71925 135.65350  1      160
siesta:      5.43849   5.43849 139.49909  1      161
siesta:      5.43849   0.00000 139.49909  1      162
siesta:      2.71925   8.15774 143.34469  1      163
siesta:      8.15774   8.15774 143.34469  1      164
siesta:      8.15774   2.71925 143.34469  1      165
siesta:      2.71925   2.71925 143.34469  1      166
siesta:      5.43849  10.87698 147.19028  1      167
siesta:      0.00000   5.43849 147.19028  1      168
siesta:     10.87698   5.43849 147.19028  1      169
siesta:      5.43849   5.43849 147.19028  1      170
siesta:      5.43849   0.00000 147.19028  1      171
siesta:      5.43849  10.87698 154.88147  1      172
siesta:      2.71925   8.15774 151.03588  1      173
siesta:      0.00000   5.43849 154.88147  1      174
siesta:      8.15774   8.15774 151.03588  1      175
siesta:     10.87698   5.43849 154.88147  1      176
siesta:      8.15774   2.71925 151.03588  1      177
siesta:      2.71925   2.71925 151.03588  1      178
siesta:      5.43849   5.43849 154.88147  1      179
siesta:      5.43849   0.00000 154.88147  1      180
siesta:      5.43849  10.87698 162.57266  1      181
siesta:      2.71925   8.15774 158.72706  1      182
siesta:      0.00000   5.43849 162.57266  1      183
siesta:      8.15774   8.15774 158.72706  1      184
siesta:     10.87698   5.43849 162.57266  1      185
siesta:      8.15774   2.71925 158.72706  1      186
siesta:      2.71925   2.71925 158.72706  1      187
siesta:      5.43849   5.43849 162.57266  1      188
siesta:      5.43849   0.00000 162.57266  1      189
siesta:      2.71925   8.15774 166.41825  1      190
siesta:      8.15774   8.15774 166.41825  1      191
siesta:      8.15774   2.71925 166.41825  1      192
siesta:      2.71925   2.71925 166.41825  1      193

siesta: System type = molecule  

initatomlists: Number of atoms, orbitals, and projectors:    193  1397  2010

coxmol: Writing XMOL coordinates into file em.xyz                                                              

siesta: ******************** Simulation parameters ****************************
siesta:
siesta: The following are some of the parameters of the simulation.
siesta: A complete list of the parameters used, including default values,
siesta: can be found in file out.fdf
siesta:
redata: Spin configuration                          = collinear
redata: Number of spin components                   = 2
redata: Time-Reversal Symmetry                      = T
redata: Spin-spiral                                 = F
redata: Long output                                 =   F
redata: Number of Atomic Species                    =        5
redata: Charge density info will appear in .RHO file
redata: Write Mulliken Pop.                         = Atomic and Orbital charges
redata: Mesh Cutoff                                 =   350.0000 Ry
redata: Net charge of the system                    =    -1.0000 |e|
redata: Min. number of SCF Iter                     =        0
redata: Max. number of SCF Iter                     =      300
redata: SCF mix quantity                            = Hamiltonian
redata: Mix DM or H after convergence               =   F
redata: Recompute H after scf cycle                 =   F
redata: Mix DM in first SCF step                    =   T
redata: Write Pulay info on disk                    =   F
redata: New DM Mixing Weight                        =     0.0300
redata: New DM Occupancy tolerance                  = 0.000000000001
redata: No kicks to SCF
redata: DM Mixing Weight for Kicks                  =     0.5000
redata: Require Harris convergence for SCF          =   F
redata: Harris energy tolerance for SCF             =     0.000100 eV
redata: Require DM convergence for SCF              =   T
redata: DM tolerance for SCF                        =     0.0001
redata: Require EDM convergence for SCF             =   F
redata: EDM tolerance for SCF                       =     0.001000 eV
redata: Require H convergence for SCF               =   T
redata: Hamiltonian tolerance for SCF               =     0.001000 eV
redata: Require (free) Energy convergence for SCF   =   F
redata: (free) Energy tolerance for SCF             =     0.000100 eV
redata: Antiferro initial spin density              =   F
redata: Using Saved Data (generic)                  =   F
redata: Use continuation files for DM               =   T
redata: Neglect nonoverlap interactions             =   F
redata: Method of Calculation                       = Diagonalization
redata: Divide and Conquer                          =   F
redata: Electronic Temperature                      =   299.9869 K
redata: Fix the spin of the system                  =   F
redata: Dynamics option                             = Single-point calculation
mix.SCF: Pulay mixing                            = Pulay
mix.SCF:    Variant                              = stable
mix.SCF:    History steps                        = 5
mix.SCF:    Linear mixing weight                 =     0.030000
mix.SCF:    Mixing weight                        =     0.030000
mix.SCF:    SVD condition                        = 0.1000E-07
mix.SCF: Spin-component mixing                   all
redata: ***********************************************************************

%block SCF.Mixers
  Pulay
%endblock SCF.Mixers

%block SCF.Mixer.Pulay
  # Mixing method
  method pulay
  variant stable

  # Mixing options
  weight 0.0300
  weight.linear 0.0300
  history 5
%endblock SCF.Mixer.Pulay

DM_history_depth set to one: no extrapolation allowed by default for geometry relaxation
Size of DM history Fstack: 1
Total number of electrons:  1538.000000
Total ionic charge:  1537.000000
madelung: WARNING: Charged system, but not SC, FCC or BCC cell.
madelung: WARNING: Energy correction terms can not be applied. 
madelung: WARNING: Continue only if you really know what you are doing.
 Kpoints in:           18 . Kpoints trimmed:           14

siesta: k-grid: Number of k-points =    14
siesta: k-grid: Cutoff (effective) =    45.000 Ang
siesta: k-grid: Supercell and displacements
siesta: k-grid:    3   0   0      0.000
siesta: k-grid:    0   3   0      0.000
siesta: k-grid:    0   0   3      0.000


                     ====================================
                        Single-point calculation
                     ====================================

outcell: Unit cell vectors (Ang):
       30.000000    0.000000    0.000000
        0.000000   30.000000    0.000000
        0.000000    0.000000   97.471707

outcell: Cell vector modules (Ang)   :   30.000000   30.000000   97.471707
outcell: Cell angles (23,13,12) (deg):     90.0000     90.0000     90.0000
outcell: Cell volume (Ang**3)        :  87724.5362
<dSpData1D:S at geom step 0
  <sparsity:sparsity for geom step 0
    nrows_g=1397 nrows=1397 sparsity=.1291 nnzs=251951, refcount: 7>
  <dData1D:(new from dSpData1D) n=251951, refcount: 1>
refcount: 1>
new_DM -- step:     1
Initializing Density Matrix...

Attempting to read DM from file... Failed...
DM filled with atomic data:
<dSpData2D:DM initialized from atoms
  <sparsity:sparsity for geom step 0
    nrows_g=1397 nrows=1397 sparsity=.1291 nnzs=251951, refcount: 8>
  <dData2D:DM n=251951 m=2, refcount: 1>
refcount: 1>

initDM: Initial spin polarization (Qup-Qdown) =  239.000000

No. of atoms with KB's overlaping orbs in proc 0. Max # of overlaps:     193     144
New grid distribution:   1
           1       1:  180    1:  180    1:  576

InitMesh: MESH =   360 x   360 x  1152 =   149299200
InitMesh: (bp) =   180 x   180 x   576 =    18662400
InitMesh: Mesh cutoff (required, used) =   350.000   386.055 Ry
ExtMesh (bp) on 0 =   268 x   268 x   664 =    47691136
PhiOnMesh: Number of (b)points on node 0 =             18662400
PhiOnMesh: nlist on node 0 =             19120440

stepf: Fermi-Dirac step function

siesta: Program's energy decomposition (eV):
siesta: Ebs     =    -21316.315082
siesta: Eions   =    131651.903834
siesta: Ena     =      3282.841907
siesta: Ekin    =     88758.809166
siesta: Enl     =    -59021.791540
siesta: Eso     =         0.000000
siesta: Eldau   =         0.000000
siesta: DEna    =      -361.576585
siesta: DUscf   =       469.796710
siesta: DUext   =         0.000000
siesta: Exc     =    -20196.695589
siesta: eta*DQ  =         0.000000
siesta: Emadel  =         0.000000
siesta: Emeta   =         0.000000
siesta: Emolmec =         0.000000
siesta: Ekinion =         0.000000
siesta: Eharris =   -117903.120417
siesta: Etot    =   -118720.519763
siesta: FreeEng =   -118720.619810

        iscf     Eharris(eV)        E_KS(eV)     FreeEng(eV)     dDmax    Ef(eV) dHmax(eV)
   scf:    1  -117903.120417  -118720.519763  -118720.619810  0.959827 -0.700319 47.617731
timer: Routine,Calls,Time,% = IterSCF        1     357.660  88.51
   scf:    2   -23371.158495   -88919.343836   -88919.347448  1.967029 25.053251504.429665
   scf:    3  -123774.876824  -118644.990812  -118645.073564  1.967763 -1.560699 44.777578
   scf:    4  -119230.066036  -119069.916027  -119070.001126  0.408438 -1.355397 15.800657
   scf:    5  -118799.816165  -118964.777259  -118964.914211  0.396054 -1.517552 27.531917
   scf:    6  -119028.999318  -119001.389749  -119001.531288  0.206944 -1.527989 27.388037
   scf:    7  -119160.979794  -119112.840364  -119112.893673  0.292847 -1.465070 11.144384
   scf:    8  -119117.272545  -119121.933074  -119121.997577  0.596136 -1.485641 13.046688
   scf:    9  -119125.052699  -119124.438428  -119124.527453  0.229514 -1.498722 10.205475
   scf:   10  -119125.750791  -119125.721614  -119125.807788  0.200633 -1.504313  9.398635
   scf:   11  -119111.098269  -119125.450675  -119125.594881  0.661792 -1.564265 13.851352
   scf:   12  -119131.184225  -119129.008153  -119129.135148  0.175872 -1.563905  8.132044
   scf:   13  -119130.742241  -119131.264131  -119131.381926  0.320758 -1.549635  4.052344
   scf:   14  -119122.280158  -119129.201331  -119129.391456  0.453199 -1.637561 13.774145
   scf:   15  -119135.940767  -119134.080360  -119134.247968  0.342236 -1.636197  4.173289
   scf:   16  -119131.151926  -119133.991420  -119134.213038  0.202386 -1.743419  6.282474
   scf:   17  -119136.125383  -119135.367998  -119135.576344  0.192628 -1.764012  4.074261
   scf:   18  -119136.002901  -119135.725905  -119135.933674  0.041525 -1.766305  3.161692
   scf:   19  -119136.068887  -119136.075362  -119136.266644  0.094416 -1.793076  1.883524
   scf:   20  -119136.363655  -119136.254999  -119136.448692  0.011295 -1.789896  2.280689
   scf:   21  -119136.756411  -119136.574008  -119136.771443  0.016399 -1.793643  2.107354
   scf:   22  -119136.869825  -119136.794849  -119136.993877  0.026163 -1.813915  1.003004
   scf:   23  -119136.859021  -119136.883137  -119137.080804  0.033121 -1.849574  1.105688
   scf:   24  -119136.943631  -119136.977733  -119137.184257  0.014809 -1.866418  0.799300
   scf:   25  -119136.967873  -119136.997566  -119137.221915  0.013789 -1.877589  0.534223
   scf:   26  -119137.060897  -119137.041179  -119137.274924  0.018001 -1.886025  0.700625
   scf:   27  -119137.052678  -119137.048081  -119137.286106  0.007190 -1.888008  0.477156
   scf:   28  -119137.029502  -119137.043925  -119137.298144  0.012338 -1.894865  0.635684
   scf:   29  -119137.054268  -119137.053022  -119137.308213  0.011393 -1.895315  0.340512
   scf:   30  -119137.053824  -119137.053789  -119137.310749  0.002282 -1.895774  0.306812
   scf:   31  -119137.052578  -119137.054416  -119137.311595  0.003077 -1.895564  0.280452
   scf:   32  -119137.057892  -119137.057319  -119137.311837  0.002994 -1.894282  0.400220
   scf:   33  -119137.056993  -119137.057219  -119137.314383  0.001911 -1.895249  0.345954
   scf:   34  -119137.064707  -119137.060913  -119137.330776  0.010837 -1.899888  0.292790
   scf:   35  -119137.056518  -119137.060236  -119137.333624  0.007582 -1.901050  0.154912
   scf:   36  -119137.064127  -119137.063203  -119137.341666  0.007012 -1.902874  0.112458
   scf:   37  -119137.064833  -119137.064478  -119137.343540  0.002224 -1.903171  0.121806
   scf:   38  -119137.067229  -119137.066107  -119137.342933  0.002814 -1.902253  0.137952
   scf:   39  -119137.065764  -119137.065963  -119137.344420  0.002036 -1.902908  0.099331
   scf:   40  -119137.067895  -119137.067135  -119137.345576  0.002048 -1.902974  0.132302
   scf:   41  -119137.066357  -119137.066814  -119137.345890  0.002350 -1.903288  0.067089
   scf:   42  -119137.066969  -119137.066978  -119137.347464  0.002618 -1.904071  0.104951
   scf:   43  -119137.066472  -119137.066814  -119137.348108  0.001600 -1.904543  0.073425
   scf:   44  -119137.066160  -119137.066487  -119137.349421  0.002778 -1.905572  0.053416
   scf:   45  -119137.065874  -119137.066180  -119137.349926  0.001281 -1.906099  0.034427
   scf:   46  -119137.066014  -119137.066105  -119137.350103  0.000601 -1.906323  0.038102
   scf:   47  -119137.066005  -119137.066060  -119137.349903  0.000728 -1.906159  0.048185
   scf:   48  -119137.065642  -119137.065848  -119137.350188  0.000908 -1.906507  0.039770
   scf:   49  -119137.065695  -119137.065757  -119137.350844  0.002385 -1.907117  0.035101
   scf:   50  -119137.065349  -119137.065559  -119137.351195  0.001633 -1.907594  0.017583
   scf:   51  -119137.065483  -119137.065548  -119137.351257  0.000377 -1.907674  0.021067
   scf:   52  -119137.065617  -119137.065583  -119137.351459  0.001111 -1.907906  0.016716
   scf:   53  -119137.065412  -119137.065499  -119137.351504  0.000328 -1.908006  0.017946
   scf:   54  -119137.065468  -119137.065483  -119137.351553  0.000303 -1.908082  0.014778
   scf:   55  -119137.065465  -119137.065474  -119137.351605  0.000345 -1.908148  0.014335
   scf:   56  -119137.065405  -119137.065439  -119137.351689  0.000634 -1.908286  0.006456
   scf:   57  -119137.065519  -119137.065481  -119137.351646  0.000334 -1.908207  0.014085
   scf:   58  -119137.065472  -119137.065473  -119137.351766  0.001004 -1.908395  0.008893
   scf:   59  -119137.065470  -119137.065472  -119137.351761  0.000061 -1.908388  0.011109
   scf:   60  -119137.065441  -119137.065456  -119137.351797  0.000333 -1.908455  0.007665
   scf:   61  -119137.065422  -119137.065439  -119137.351827  0.000309 -1.908511  0.006705
   scf:   62  -119137.065254  -119137.065335  -119137.351940  0.001561 -1.908761  0.005208
   scf:   63  -119137.065364  -119137.065349  -119137.351905  0.000609 -1.908577  0.007758
   scf:   64  -119137.065162  -119137.065242  -119137.351995  0.001844 -1.908788  0.004852
   scf:   65  -119137.065310  -119137.065276  -119137.351988  0.000260 -1.908753  0.003848
   scf:   66  -119137.065318  -119137.065297  -119137.352003  0.000439 -1.908699  0.002705
   scf:   67  -119137.065315  -119137.065307  -119137.352007  0.000165 -1.908694  0.003584
   scf:   68  -119137.065306  -119137.065307  -119137.352014  0.000265 -1.908695  0.001833
   scf:   69  -119137.065321  -119137.065314  -119137.352018  0.000185 -1.908693  0.001603
   scf:   70  -119137.065312  -119137.065313  -119137.352023  0.000231 -1.908712  0.001157
   scf:   71  -119137.065312  -119137.065312  -119137.352025  0.000093 -1.908713  0.000952

SCF Convergence by DM+H criterion
max |DM_out - DM_in|         :     0.0000925098
max |H_out - H_in|      (eV) :     0.0009520005
SCF cycle converged after 71 iterations

Using DM_out to compute the final energy and forces
No. of atoms with KB's overlaping orbs in proc 0. Max # of overlaps:     193     144

siesta: E_KS(eV) =          -119137.0653

siesta: E_KS - E_eggbox =   -119137.0653

siesta: Total spin polarization (Qup-Qdown) =    0.982988

siesta: Atomic forces (eV/Ang):
----------------------------------------
   Tot    0.022073   -0.003143   -0.040054
----------------------------------------
   Max    4.813240
   Res    0.871288    sqrt( Sum f_i^2 / 3N )
----------------------------------------
   Max    4.813240    constrained

Stress-tensor-Voigt (kbar):       -2.78       -2.56       -1.65       -0.01       -0.01       -0.00
(Free)E + p*V (eV/cell)  -119009.9183
Target enthalpy (eV/cell)  -119137.3520

mulliken: Atomic and Orbital Populations:

mulliken: Spin UP 

Species: Au                  
Atom  Qatom  Qorb
               6s      5dxy    5dyz    5dz2    5dxz    5dx2-y2 
   1  5.507   0.573   0.989   0.985   0.993   0.985   0.982
   2  5.507   0.573   0.989   0.985   0.993   0.985   0.982
   3  5.507   0.574   0.989   0.985   0.993   0.985   0.982
   4  5.507   0.574   0.989   0.985   0.993   0.985   0.982
   5  5.524   0.597   0.992   0.992   0.991   0.967   0.985
   6  5.430   0.509   0.984   0.981   0.984   0.981   0.992
   7  5.487   0.578   0.983   0.975   0.991   0.975   0.985
   8  5.487   0.578   0.983   0.975   0.991   0.975   0.985
   9  5.524   0.598   0.992   0.967   0.991   0.992   0.985
  10  5.487   0.578   0.983   0.975   0.991   0.975   0.985
  11  5.524   0.598   0.992   0.967   0.991   0.992   0.985
  12  5.487   0.578   0.983   0.975   0.991   0.975   0.985
  13  5.524   0.598   0.992   0.992   0.991   0.967   0.985
  14  5.518   0.594   0.993   0.986   0.993   0.966   0.986
  15  5.476   0.552   0.989   0.980   0.987   0.980   0.988
  16  5.494   0.585   0.985   0.974   0.992   0.974   0.985
  17  5.494   0.585   0.985   0.974   0.992   0.974   0.985
  18  5.518   0.594   0.993   0.966   0.993   0.986   0.986
  19  5.493   0.584   0.985   0.974   0.992   0.974   0.985
  20  5.518   0.594   0.993   0.966   0.993   0.986   0.986
  21  5.494   0.584   0.985   0.974   0.992   0.974   0.985
  22  5.518   0.594   0.993   0.986   0.993   0.966   0.986
  23  5.522   0.598   0.992   0.989   0.992   0.965   0.986
  24  5.470   0.549   0.987   0.979   0.985   0.979   0.991
  25  5.522   0.598   0.992   0.965   0.992   0.989   0.986
  26  5.522   0.598   0.992   0.965   0.992   0.989   0.986
  27  5.522   0.598   0.992   0.989   0.992   0.965   0.986
  28  5.487   0.575   0.985   0.975   0.992   0.976   0.984
  29  5.488   0.575   0.985   0.975   0.992   0.976   0.984
  30  5.488   0.575   0.985   0.976   0.992   0.975   0.984
  31  5.488   0.575   0.985   0.976   0.992   0.975   0.984
  32  5.530   0.608   0.992   0.986   0.992   0.965   0.986
  33  5.473   0.550   0.987   0.979   0.987   0.979   0.991
  34  5.488   0.579   0.985   0.974   0.991   0.974   0.985
  35  5.489   0.579   0.985   0.974   0.991   0.974   0.985
  36  5.529   0.608   0.992   0.965   0.992   0.986   0.986
  37  5.489   0.580   0.985   0.974   0.991   0.974   0.985
  38  5.530   0.608   0.992   0.965   0.992   0.986   0.986
  39  5.489   0.580   0.985   0.974   0.991   0.974   0.985
  40  5.529   0.608   0.992   0.986   0.992   0.965   0.986
  41  5.514   0.590   0.993   0.988   0.992   0.965   0.986
  42  5.463   0.539   0.989   0.980   0.987   0.980   0.988
  43  5.495   0.585   0.984   0.974   0.992   0.974   0.985
  44  5.494   0.585   0.984   0.974   0.992   0.974   0.985
  45  5.514   0.590   0.993   0.965   0.992   0.988   0.986
  46  5.494   0.585   0.984   0.974   0.992   0.974   0.985
  47  5.514   0.590   0.993   0.965   0.992   0.988   0.986
  48  5.494   0.585   0.984   0.974   0.992   0.974   0.985
  49  5.514   0.590   0.993   0.988   0.992   0.965   0.986
  50  5.522   0.597   0.992   0.991   0.991   0.968   0.984
  51  5.437   0.511   0.983   0.981   0.988   0.981   0.992
  52  5.524   0.600   0.992   0.968   0.991   0.990   0.984
  53  5.523   0.598   0.992   0.968   0.991   0.991   0.984
  54  5.525   0.601   0.992   0.990   0.991   0.967   0.984
  55  5.477   0.546   0.990   0.984   0.989   0.984   0.984
  56  5.478   0.547   0.990   0.984   0.989   0.984   0.984
  57  5.480   0.549   0.990   0.984   0.989   0.984   0.984
  58  5.479   0.548   0.990   0.984   0.989   0.984   0.984
  59  5.581   0.666   0.976   0.980   0.978   0.980   1.000
  60  5.377   0.497   0.993   0.952   0.958   0.985   0.992
 134  5.319   0.391   0.997   0.980   0.962   0.993   0.997
 135  5.579   0.665   0.976   0.979   0.979   0.980   1.000
 136  5.468   0.537   0.990   0.984   0.989   0.984   0.984
 137  5.468   0.537   0.990   0.984   0.989   0.984   0.984
 138  5.477   0.546   0.990   0.984   0.989   0.984   0.984
 139  5.477   0.546   0.990   0.984   0.989   0.984   0.984
 140  5.516   0.591   0.991   0.990   0.991   0.968   0.984
 141  5.521   0.596   0.991   0.968   0.991   0.990   0.984
 142  5.520   0.595   0.991   0.968   0.991   0.990   0.984
 143  5.439   0.513   0.983   0.981   0.987   0.981   0.992
 144  5.523   0.598   0.992   0.990   0.991   0.968   0.984
 145  5.512   0.588   0.993   0.988   0.992   0.966   0.986
 146  5.494   0.584   0.984   0.974   0.992   0.974   0.985
 147  5.512   0.589   0.993   0.965   0.992   0.988   0.986
 148  5.494   0.584   0.984   0.974   0.992   0.974   0.985
 149  5.512   0.589   0.993   0.965   0.992   0.988   0.986
 150  5.493   0.583   0.984   0.974   0.992   0.974   0.985
 151  5.493   0.583   0.984   0.974   0.992   0.974   0.985
 152  5.464   0.540   0.988   0.980   0.987   0.980   0.988
 153  5.513   0.589   0.993   0.988   0.992   0.965   0.986
 154  5.528   0.607   0.992   0.986   0.992   0.965   0.986
 155  5.488   0.579   0.985   0.974   0.991   0.974   0.985
 156  5.528   0.607   0.992   0.965   0.992   0.986   0.986
 157  5.488   0.578   0.985   0.974   0.991   0.974   0.985
 158  5.528   0.607   0.992   0.965   0.992   0.986   0.986
 159  5.488   0.579   0.985   0.974   0.991   0.974   0.985
 160  5.489   0.579   0.985   0.974   0.991   0.974   0.985
 161  5.473   0.550   0.987   0.979   0.987   0.979   0.991
 162  5.528   0.607   0.992   0.986   0.992   0.965   0.986
 163  5.487   0.575   0.985   0.975   0.992   0.976   0.984
 164  5.487   0.574   0.985   0.975   0.992   0.975   0.984
 165  5.488   0.575   0.985   0.976   0.992   0.975   0.984
 166  5.488   0.575   0.985   0.976   0.992   0.975   0.984
 167  5.521   0.597   0.992   0.989   0.992   0.965   0.986
 168  5.521   0.597   0.992   0.965   0.992   0.989   0.986
 169  5.521   0.597   0.992   0.965   0.992   0.989   0.986
 170  5.470   0.550   0.987   0.979   0.985   0.979   0.991
 171  5.521   0.597   0.992   0.989   0.992   0.965   0.986
 172  5.517   0.594   0.993   0.986   0.993   0.966   0.986
 173  5.494   0.584   0.985   0.974   0.992   0.974   0.985
 174  5.517   0.594   0.993   0.966   0.993   0.986   0.986
 175  5.494   0.584   0.985   0.974   0.992   0.974   0.985
 176  5.517   0.594   0.993   0.966   0.993   0.986   0.986
 177  5.493   0.584   0.985   0.974   0.992   0.974   0.985
 178  5.493   0.583   0.985   0.974   0.992   0.974   0.985
 179  5.476   0.553   0.989   0.980   0.987   0.980   0.988
 180  5.518   0.594   0.993   0.986   0.993   0.966   0.986
 181  5.523   0.597   0.992   0.992   0.991   0.967   0.985
 182  5.486   0.578   0.983   0.975   0.991   0.975   0.985
 183  5.523   0.597   0.992   0.967   0.991   0.992   0.985
 184  5.487   0.578   0.983   0.975   0.991   0.975   0.985
 185  5.523   0.597   0.992   0.967   0.991   0.992   0.985
 186  5.487   0.578   0.983   0.975   0.991   0.975   0.985
 187  5.487   0.578   0.983   0.975   0.991   0.975   0.985
 188  5.431   0.509   0.984   0.981   0.984   0.981   0.992
 189  5.524   0.597   0.992   0.992   0.991   0.967   0.985
 190  5.507   0.573   0.989   0.985   0.993   0.985   0.982
 191  5.507   0.573   0.989   0.985   0.993   0.985   0.982
 192  5.507   0.573   0.989   0.985   0.993   0.985   0.982
 193  5.507   0.573   0.989   0.985   0.993   0.985   0.982

Species: N                   
Atom  Qatom  Qorb
               2s      2s      2py     2pz     2px     2py     2pz     2px     
               2Pdxy   2Pdyz   2Pdz2   2Pdxz   2Pdx2-y2
  61  2.533   0.333   0.249   0.327   0.477   0.804   0.213   0.087   0.019
              0.003   0.004   0.007   0.005   0.003
  71  2.256   0.183   0.334   0.201   0.219   0.596   0.306   0.265   0.120
              0.003   0.009   0.011   0.008   0.003
  81  2.252   0.182   0.335   0.202   0.216   0.589   0.306   0.267   0.122
              0.003   0.008   0.011   0.007   0.003
  91  2.252   0.183   0.335   0.200   0.217   0.589   0.308   0.266   0.122
              0.003   0.009   0.010   0.008   0.003
 101  2.251   0.183   0.335   0.202   0.216   0.586   0.307   0.267   0.122
              0.003   0.008   0.011   0.007   0.003
 111  2.250   0.182   0.335   0.199   0.218   0.585   0.308   0.267   0.122
              0.003   0.009   0.011   0.008   0.003
 121  2.249   0.182   0.337   0.201   0.218   0.581   0.308   0.266   0.121
              0.003   0.008   0.011   0.008   0.003

Species: C                   
Atom  Qatom  Qorb
               2s      2s      2py     2pz     2px     2py     2pz     2px     
               2Pdxy   2Pdyz   2Pdz2   2Pdxz   2Pdx2-y2
  63  1.898   0.125   0.316   0.248   0.304   0.097   0.207   0.155   0.323
              0.019   0.028   0.030   0.021   0.024
  65  2.153   0.378   0.187   0.329   0.304   0.368   0.171   0.170   0.068
              0.032   0.066   0.023   0.027   0.029
  67  1.694  -0.029   0.398   0.166   0.072   0.113   0.273   0.344   0.313
              0.006   0.016   0.008   0.002   0.013
  73  1.893   0.134   0.314   0.242   0.276   0.104   0.222   0.161   0.331
              0.014   0.029   0.023   0.023   0.021
  75  2.151   0.376   0.186   0.320   0.314   0.369   0.181   0.156   0.072
              0.030   0.062   0.027   0.029   0.027
  77  1.696  -0.028   0.395   0.164   0.083   0.115   0.275   0.342   0.309
              0.006   0.012   0.008   0.003   0.013
  83  1.893   0.134   0.314   0.249   0.267   0.106   0.212   0.172   0.329
              0.016   0.029   0.022   0.019   0.022
  85  2.151   0.376   0.185   0.328   0.305   0.371   0.170   0.169   0.071
              0.033   0.066   0.022   0.027   0.029
  87  1.696  -0.028   0.395   0.166   0.081   0.115   0.270   0.346   0.309
              0.006   0.014   0.007   0.003   0.012
  93  1.892   0.134   0.314   0.243   0.274   0.105   0.223   0.160   0.331
              0.014   0.029   0.023   0.022   0.021
  95  2.152   0.376   0.185   0.320   0.314   0.371   0.181   0.156   0.072
              0.030   0.063   0.027   0.029   0.027
  97  1.696  -0.028   0.395   0.163   0.084   0.115   0.274   0.342   0.309
              0.007   0.012   0.008   0.003   0.013
 103  1.892   0.134   0.315   0.248   0.267   0.106   0.212   0.172   0.330
              0.016   0.029   0.021   0.019   0.022
 105  2.153   0.376   0.184   0.329   0.305   0.374   0.169   0.168   0.070
              0.033   0.066   0.022   0.027   0.029
 107  1.696  -0.028   0.395   0.167   0.082   0.114   0.269   0.347   0.309
              0.007   0.013   0.007   0.003   0.012
 113  1.892   0.134   0.315   0.243   0.273   0.105   0.223   0.160   0.331
              0.014   0.029   0.023   0.022   0.021
 115  2.155   0.376   0.184   0.320   0.314   0.377   0.180   0.156   0.071
              0.031   0.063   0.027   0.029   0.027
 117  1.696  -0.029   0.395   0.163   0.085   0.115   0.274   0.342   0.309
              0.006   0.012   0.008   0.003   0.013
 123  1.897   0.133   0.316   0.254   0.267   0.104   0.210   0.169   0.333
              0.016   0.031   0.022   0.018   0.024
 125  2.235   0.392   0.171   0.328   0.326   0.363   0.177   0.186   0.079
              0.032   0.069   0.043   0.039   0.030
 127  1.775   0.052   0.355   0.206   0.167   0.101   0.240   0.284   0.314
              0.009   0.016   0.011   0.006   0.014
 130  2.225   0.376   0.179   0.341   0.311   0.364   0.126   0.184   0.121
              0.032   0.049   0.047   0.049   0.045

Species: H                   
Atom  Qatom  Qorb
               1s      1s      1Ppy    1Ppz    1Ppx    
  62  0.658   0.341   0.185   0.042   0.033   0.057
  64  0.622   0.392   0.172   0.020   0.018   0.020
  68  0.612   0.388   0.167   0.018   0.020   0.019
  69  0.633   0.424   0.142   0.020   0.025   0.020
  70  0.611   0.396   0.161   0.018   0.020   0.017
  72  0.634   0.301   0.217   0.043   0.029   0.045
  74  0.604   0.364   0.185   0.019   0.017   0.019
  78  0.607   0.378   0.174   0.018   0.019   0.018
  79  0.615   0.384   0.165   0.016   0.028   0.022
  80  0.610   0.392   0.163   0.018   0.021   0.017
  82  0.631   0.297   0.219   0.041   0.031   0.044
  84  0.602   0.361   0.186   0.018   0.017   0.019
  88  0.605   0.374   0.175   0.017   0.020   0.018
  89  0.615   0.384   0.166   0.017   0.028   0.021
  90  0.609   0.390   0.164   0.017   0.021   0.017
  92  0.631   0.296   0.219   0.043   0.029   0.044
  94  0.602   0.361   0.187   0.019   0.016   0.019
  98  0.604   0.373   0.176   0.018   0.019   0.018
  99  0.615   0.384   0.166   0.016   0.028   0.021
 100  0.609   0.390   0.164   0.018   0.021   0.017
 102  0.631   0.297   0.219   0.041   0.031   0.043
 104  0.602   0.361   0.187   0.018   0.017   0.019
 108  0.602   0.371   0.177   0.017   0.020   0.018
 109  0.616   0.386   0.165   0.017   0.027   0.021
 110  0.609   0.390   0.164   0.017   0.021   0.017
 112  0.631   0.298   0.218   0.043   0.029   0.043
 114  0.603   0.363   0.186   0.019   0.016   0.019
 118  0.603   0.372   0.176   0.018   0.019   0.018
 119  0.618   0.390   0.163   0.016   0.028   0.021
 120  0.610   0.393   0.163   0.018   0.021   0.017
 122  0.645   0.309   0.213   0.043   0.036   0.044
 124  0.607   0.368   0.184   0.019   0.017   0.019
 128  0.629   0.391   0.170   0.017   0.029   0.022
 129  0.625   0.398   0.166   0.019   0.023   0.018

Species: O                   
Atom  Qatom  Qorb
               2s      2s      2py     2pz     2px     2py     2pz     2px     
               2Pdxy   2Pdyz   2Pdz2   2Pdxz   2Pdx2-y2
  66  2.957   0.526   0.230   0.568   0.820   0.638   0.096   0.022   0.039
              0.006   0.004   0.002   0.001   0.006
  76  2.954   0.527   0.229   0.568   0.808   0.641   0.098   0.025   0.039
              0.006   0.004   0.002   0.001   0.006
  86  2.953   0.527   0.229   0.563   0.813   0.638   0.098   0.024   0.040
              0.006   0.004   0.002   0.001   0.006
  96  2.954   0.527   0.229   0.567   0.807   0.641   0.098   0.025   0.039
              0.006   0.004   0.002   0.001   0.006
 106  2.955   0.527   0.229   0.565   0.813   0.641   0.098   0.024   0.039
              0.006   0.004   0.002   0.001   0.006
 116  2.956   0.527   0.229   0.567   0.808   0.645   0.098   0.025   0.038
              0.006   0.004   0.002   0.001   0.006
 126  3.054   0.554   0.209   0.617   0.872   0.717   0.064  -0.007   0.012
              0.005   0.002   0.003   0.001   0.005
 131  3.110   0.554   0.215   0.691   0.888   0.665   0.035  -0.001   0.048
              0.005   0.002   0.002   0.002   0.006
 132  3.130   0.571   0.208   0.799   0.696   0.741   0.020   0.049   0.030
              0.001   0.004   0.005   0.005   0.002
 133  3.058   0.541   0.212   0.845   0.553   0.782   0.006   0.097   0.004
              0.002   0.003   0.007   0.006   0.001

mulliken: Qtot =      769.491

mulliken: Spin DOWN 

Species: Au                  
Atom  Qatom  Qorb
               6s      5dxy    5dyz    5dz2    5dxz    5dx2-y2 
   1  5.507   0.573   0.989   0.985   0.993   0.985   0.982
   2  5.506   0.573   0.989   0.985   0.993   0.985   0.982
   3  5.507   0.573   0.989   0.985   0.993   0.985   0.982
   4  5.507   0.573   0.989   0.985   0.993   0.985   0.982
   5  5.524   0.598   0.992   0.992   0.991   0.967   0.985
   6  5.430   0.509   0.984   0.981   0.984   0.981   0.992
   7  5.486   0.577   0.983   0.975   0.991   0.975   0.985
   8  5.486   0.577   0.983   0.975   0.991   0.975   0.985
   9  5.524   0.598   0.992   0.967   0.991   0.992   0.985
  10  5.486   0.577   0.983   0.975   0.991   0.975   0.985
  11  5.524   0.598   0.992   0.967   0.991   0.992   0.985
  12  5.486   0.577   0.983   0.975   0.991   0.975   0.985
  13  5.524   0.598   0.992   0.992   0.991   0.967   0.985
  14  5.517   0.594   0.993   0.986   0.993   0.966   0.986
  15  5.475   0.552   0.989   0.980   0.987   0.980   0.988
  16  5.494   0.585   0.985   0.974   0.992   0.974   0.984
  17  5.494   0.584   0.985   0.974   0.992   0.974   0.985
  18  5.518   0.594   0.993   0.966   0.993   0.986   0.986
  19  5.493   0.584   0.985   0.974   0.992   0.974   0.985
  20  5.517   0.594   0.993   0.966   0.993   0.986   0.986
  21  5.493   0.584   0.985   0.974   0.992   0.974   0.985
  22  5.518   0.594   0.993   0.986   0.993   0.966   0.986
  23  5.522   0.598   0.992   0.989   0.992   0.965   0.986
  24  5.469   0.549   0.987   0.979   0.985   0.979   0.991
  25  5.522   0.598   0.992   0.965   0.992   0.989   0.986
  26  5.522   0.598   0.992   0.965   0.992   0.989   0.986
  27  5.521   0.598   0.992   0.989   0.992   0.965   0.986
  28  5.487   0.574   0.985   0.975   0.992   0.976   0.984
  29  5.487   0.574   0.985   0.975   0.992   0.976   0.984
  30  5.488   0.575   0.985   0.976   0.992   0.976   0.984
  31  5.487   0.575   0.985   0.976   0.992   0.975   0.984
  32  5.530   0.608   0.992   0.986   0.992   0.965   0.986
  33  5.473   0.550   0.987   0.979   0.987   0.979   0.991
  34  5.488   0.579   0.985   0.974   0.991   0.974   0.985
  35  5.488   0.579   0.985   0.974   0.991   0.974   0.985
  36  5.529   0.608   0.992   0.965   0.992   0.986   0.986
  37  5.489   0.580   0.985   0.974   0.991   0.974   0.985
  38  5.530   0.608   0.992   0.965   0.992   0.986   0.986
  39  5.488   0.579   0.985   0.974   0.991   0.974   0.985
  40  5.529   0.608   0.992   0.986   0.992   0.965   0.986
  41  5.514   0.590   0.993   0.988   0.992   0.965   0.986
  42  5.462   0.539   0.988   0.980   0.987   0.980   0.988
  43  5.494   0.585   0.984   0.974   0.992   0.974   0.985
  44  5.493   0.584   0.984   0.974   0.992   0.974   0.985
  45  5.514   0.590   0.993   0.965   0.992   0.988   0.986
  46  5.493   0.584   0.984   0.974   0.992   0.974   0.985
  47  5.514   0.590   0.993   0.965   0.992   0.988   0.986
  48  5.493   0.584   0.984   0.974   0.992   0.974   0.985
  49  5.514   0.590   0.993   0.988   0.992   0.965   0.986
  50  5.522   0.597   0.992   0.991   0.991   0.968   0.984
  51  5.437   0.511   0.983   0.981   0.988   0.981   0.992
  52  5.525   0.600   0.992   0.967   0.991   0.990   0.984
  53  5.523   0.598   0.992   0.968   0.991   0.990   0.984
  54  5.526   0.601   0.992   0.990   0.991   0.967   0.984
  55  5.476   0.546   0.990   0.984   0.989   0.984   0.984
  56  5.477   0.546   0.990   0.984   0.989   0.984   0.984
  57  5.479   0.549   0.990   0.984   0.989   0.984   0.984
  58  5.478   0.547   0.990   0.984   0.989   0.984   0.984
  59  5.580   0.665   0.976   0.980   0.978   0.980   1.000
  60  5.371   0.504   0.991   0.949   0.957   0.979   0.990
 134  5.313   0.394   0.997   0.977   0.957   0.991   0.996
 135  5.578   0.664   0.976   0.979   0.979   0.980   1.000
 136  5.467   0.537   0.990   0.984   0.989   0.984   0.984
 137  5.467   0.536   0.990   0.984   0.989   0.984   0.984
 138  5.476   0.545   0.990   0.984   0.989   0.984   0.984
 139  5.476   0.546   0.990   0.984   0.989   0.984   0.984
 140  5.516   0.592   0.991   0.990   0.991   0.968   0.984
 141  5.521   0.597   0.991   0.968   0.991   0.990   0.984
 142  5.520   0.595   0.991   0.968   0.991   0.990   0.984
 143  5.438   0.513   0.983   0.981   0.988   0.981   0.992
 144  5.523   0.598   0.991   0.990   0.991   0.968   0.984
 145  5.512   0.588   0.993   0.988   0.992   0.966   0.986
 146  5.493   0.583   0.984   0.974   0.992   0.974   0.985
 147  5.512   0.588   0.993   0.965   0.992   0.988   0.986
 148  5.493   0.583   0.984   0.974   0.992   0.974   0.985
 149  5.512   0.588   0.993   0.965   0.992   0.988   0.986
 150  5.492   0.582   0.984   0.974   0.992   0.974   0.985
 151  5.491   0.582   0.984   0.974   0.992   0.974   0.985
 152  5.463   0.540   0.988   0.980   0.987   0.980   0.988
 153  5.513   0.589   0.993   0.988   0.992   0.965   0.986
 154  5.528   0.607   0.992   0.986   0.992   0.965   0.986
 155  5.487   0.578   0.985   0.974   0.991   0.974   0.985
 156  5.528   0.606   0.992   0.965   0.992   0.986   0.986
 157  5.487   0.578   0.985   0.974   0.991   0.974   0.985
 158  5.528   0.607   0.992   0.965   0.992   0.986   0.986
 159  5.488   0.579   0.985   0.974   0.991   0.974   0.985
 160  5.488   0.579   0.985   0.974   0.991   0.974   0.985
 161  5.473   0.550   0.987   0.979   0.987   0.979   0.991
 162  5.528   0.606   0.992   0.986   0.992   0.965   0.986
 163  5.487   0.574   0.985   0.975   0.992   0.976   0.984
 164  5.487   0.574   0.985   0.975   0.992   0.976   0.984
 165  5.488   0.575   0.985   0.976   0.992   0.975   0.984
 166  5.488   0.575   0.985   0.976   0.992   0.975   0.984
 167  5.521   0.597   0.992   0.989   0.992   0.965   0.986
 168  5.521   0.597   0.992   0.965   0.992   0.989   0.986
 169  5.521   0.597   0.992   0.965   0.992   0.989   0.986
 170  5.469   0.549   0.987   0.979   0.985   0.979   0.991
 171  5.521   0.597   0.992   0.989   0.992   0.965   0.986
 172  5.517   0.594   0.993   0.986   0.993   0.966   0.986
 173  5.493   0.584   0.985   0.974   0.992   0.974   0.985
 174  5.517   0.594   0.993   0.966   0.993   0.986   0.986
 175  5.493   0.584   0.985   0.974   0.992   0.974   0.985
 176  5.517   0.594   0.993   0.966   0.993   0.986   0.986
 177  5.493   0.583   0.985   0.974   0.992   0.974   0.985
 178  5.492   0.583   0.985   0.974   0.992   0.974   0.985
 179  5.476   0.552   0.988   0.980   0.987   0.980   0.988
 180  5.517   0.594   0.993   0.986   0.993   0.966   0.986
 181  5.523   0.597   0.992   0.992   0.991   0.967   0.985
 182  5.485   0.577   0.983   0.975   0.991   0.975   0.985
 183  5.523   0.597   0.992   0.967   0.991   0.992   0.985
 184  5.485   0.577   0.983   0.975   0.991   0.975   0.985
 185  5.523   0.597   0.992   0.967   0.991   0.992   0.985
 186  5.486   0.577   0.983   0.975   0.991   0.975   0.985
 187  5.486   0.577   0.983   0.975   0.991   0.975   0.985
 188  5.430   0.509   0.984   0.981   0.984   0.981   0.992
 189  5.523   0.597   0.992   0.992   0.991   0.967   0.985
 190  5.507   0.573   0.989   0.985   0.993   0.985   0.982
 191  5.507   0.573   0.989   0.985   0.993   0.985   0.982
 192  5.506   0.572   0.989   0.985   0.993   0.985   0.982
 193  5.506   0.572   0.989   0.985   0.993   0.985   0.982

Species: N                   
Atom  Qatom  Qorb
               2s      2s      2py     2pz     2px     2py     2pz     2px     
               2Pdxy   2Pdyz   2Pdz2   2Pdxz   2Pdx2-y2
  61  2.371   0.330   0.245   0.308   0.469   0.689   0.210   0.086   0.011
              0.003   0.004   0.007   0.005   0.003
  71  2.255   0.183   0.334   0.201   0.219   0.595   0.306   0.265   0.119
              0.003   0.009   0.011   0.008   0.003
  81  2.253   0.182   0.335   0.202   0.216   0.589   0.306   0.267   0.122
              0.003   0.008   0.011   0.007   0.003
  91  2.252   0.183   0.335   0.200   0.217   0.589   0.308   0.266   0.122
              0.003   0.009   0.010   0.008   0.003
 101  2.251   0.183   0.335   0.202   0.216   0.586   0.307   0.267   0.122
              0.003   0.008   0.011   0.007   0.003
 111  2.250   0.182   0.335   0.199   0.218   0.585   0.308   0.267   0.122
              0.003   0.009   0.011   0.008   0.003
 121  2.247   0.182   0.337   0.201   0.218   0.581   0.307   0.266   0.121
              0.003   0.008   0.011   0.008   0.003

Species: C                   
Atom  Qatom  Qorb
               2s      2s      2py     2pz     2px     2py     2pz     2px     
               2Pdxy   2Pdyz   2Pdz2   2Pdxz   2Pdx2-y2
  63  1.898   0.126   0.317   0.250   0.306   0.098   0.208   0.155   0.322
              0.017   0.028   0.029   0.019   0.023
  65  2.153   0.378   0.187   0.329   0.304   0.368   0.171   0.170   0.068
              0.032   0.066   0.023   0.027   0.029
  67  1.687  -0.030   0.397   0.164   0.072   0.112   0.271   0.343   0.312
              0.006   0.016   0.008   0.002   0.013
  73  1.893   0.134   0.314   0.242   0.276   0.104   0.222   0.161   0.331
              0.014   0.029   0.023   0.023   0.021
  75  2.151   0.376   0.186   0.320   0.314   0.369   0.181   0.156   0.072
              0.030   0.062   0.027   0.029   0.027
  77  1.696  -0.028   0.395   0.164   0.083   0.115   0.275   0.342   0.309
              0.006   0.012   0.008   0.003   0.013
  83  1.893   0.134   0.314   0.249   0.267   0.106   0.212   0.172   0.329
              0.016   0.029   0.022   0.019   0.022
  85  2.151   0.376   0.185   0.328   0.305   0.371   0.170   0.169   0.071
[...]
              0.016   0.029   0.021   0.019   0.022
 105  2.153   0.376   0.184   0.329   0.305   0.374   0.169   0.168   0.070
              0.033   0.066   0.022   0.027   0.029
 107  1.696  -0.028   0.395   0.167   0.082   0.114   0.269   0.347   0.309
              0.007   0.013   0.007   0.003   0.012
 113  1.892   0.134   0.315   0.243   0.273   0.105   0.223   0.160   0.331
              0.014   0.029   0.023   0.022   0.021
 115  2.155   0.376   0.184   0.320   0.314   0.378   0.180   0.156   0.071
              0.031   0.063   0.027   0.029   0.027
 117  1.696  -0.029   0.395   0.163   0.085   0.115   0.274   0.342   0.309
              0.006   0.012   0.008   0.003   0.013
 123  1.898   0.133   0.317   0.254   0.267   0.104   0.210   0.170   0.333
              0.016   0.031   0.022   0.018   0.023
 125  2.249   0.393   0.172   0.332   0.329   0.368   0.178   0.186   0.080
              0.033   0.070   0.041   0.039   0.029
 127  1.774   0.052   0.355   0.207   0.167   0.100   0.240   0.283   0.313
              0.009   0.017   0.011   0.006   0.014
 130  2.253   0.378   0.182   0.352   0.319   0.372   0.127   0.184   0.122
              0.028   0.051   0.044   0.047   0.045

Species: H                   
Atom  Qatom  Qorb
               1s      1s      1Ppy    1Ppz    1Ppx    
  62  0.656   0.346   0.186   0.041   0.033   0.050
  64  0.616   0.390   0.169   0.020   0.018   0.020
  68  0.611   0.387   0.167   0.018   0.020   0.019
  69  0.633   0.425   0.142   0.020   0.025   0.020
  70  0.611   0.395   0.161   0.018   0.020   0.017
  72  0.634   0.301   0.217   0.043   0.029   0.045
  74  0.604   0.364   0.185   0.019   0.017   0.019
  78  0.607   0.378   0.174   0.018   0.019   0.018
  79  0.615   0.384   0.165   0.016   0.028   0.022
  80  0.610   0.392   0.163   0.018   0.021   0.017
  82  0.631   0.297   0.219   0.041   0.031   0.044
  84  0.602   0.361   0.186   0.018   0.017   0.019
  88  0.605   0.374   0.175   0.017   0.020   0.018
  89  0.615   0.384   0.166   0.017   0.028   0.021
  90  0.609   0.390   0.164   0.017   0.021   0.017
  92  0.631   0.296   0.219   0.043   0.029   0.044
  94  0.602   0.361   0.187   0.019   0.016   0.019
  98  0.604   0.373   0.176   0.018   0.019   0.018
  99  0.615   0.384   0.166   0.016   0.028   0.021
 100  0.609   0.390   0.164   0.018   0.021   0.017
 102  0.631   0.297   0.219   0.041   0.031   0.043
 104  0.602   0.361   0.187   0.018   0.017   0.019
 108  0.602   0.371   0.177   0.017   0.020   0.018
 109  0.616   0.386   0.165   0.017   0.027   0.021
 110  0.609   0.390   0.164   0.017   0.021   0.017
 112  0.631   0.298   0.218   0.043   0.029   0.043
 114  0.603   0.363   0.186   0.019   0.016   0.019
 118  0.603   0.372   0.176   0.018   0.019   0.018
 119  0.618   0.390   0.163   0.016   0.028   0.021
 120  0.610   0.393   0.163   0.018   0.021   0.017
 122  0.642   0.307   0.214   0.042   0.035   0.044
 124  0.607   0.368   0.184   0.019   0.017   0.019
 128  0.626   0.392   0.165   0.017   0.029   0.022
 129  0.622   0.399   0.162   0.019   0.023   0.018

Species: O                   
Atom  Qatom  Qorb
               2s      2s      2py     2pz     2px     2py     2pz     2px     
               2Pdxy   2Pdyz   2Pdz2   2Pdxz   2Pdx2-y2
  66  2.957   0.526   0.230   0.568   0.820   0.639   0.096   0.022   0.039
              0.006   0.004   0.002   0.001   0.006
  76  2.954   0.527   0.229   0.568   0.808   0.641   0.098   0.025   0.039
              0.006   0.004   0.002   0.001   0.006
  86  2.953   0.527   0.229   0.563   0.813   0.638   0.098   0.024   0.040
              0.006   0.004   0.002   0.001   0.006
  96  2.954   0.527   0.229   0.567   0.807   0.641   0.098   0.025   0.039
              0.006   0.004   0.002   0.001   0.006
 106  2.955   0.527   0.229   0.565   0.813   0.641   0.098   0.024   0.039
              0.006   0.004   0.002   0.001   0.006
 116  2.954   0.527   0.229   0.567   0.806   0.645   0.098   0.024   0.038
              0.006   0.004   0.002   0.001   0.006
 126  2.937   0.556   0.205   0.616   0.776   0.706   0.061  -0.008   0.009
              0.005   0.002   0.003   0.001   0.005
 131  2.865   0.556   0.208   0.681   0.713   0.626   0.029  -0.007   0.042
              0.005   0.002   0.002   0.002   0.006
 132  2.844   0.574   0.199   0.604   0.683   0.699   0.003   0.043   0.022
              0.001   0.004   0.005   0.005   0.002
 133  2.930   0.542   0.207   0.736   0.552   0.782  -0.002   0.093   0.001
              0.002   0.004   0.006   0.006   0.002

mulliken: Qtot =      768.509

coxmol: Writing XMOL coordinates into file em.xyz                                                              

siesta: Program's energy decomposition (eV):
siesta: Ebs     =    -11034.627742
siesta: Eions   =    131651.903834
siesta: Ena     =      3282.841907
siesta: Ekin    =     88605.553953
siesta: Enl     =    -59204.685214
siesta: Eso     =         0.000000
siesta: Eldau   =         0.000000
siesta: DEna    =       -38.195153
siesta: DUscf   =        29.558904
siesta: DUext   =         0.000000
siesta: Exc     =    -20160.235875
siesta: eta*DQ  =         0.000000
siesta: Emadel  =         0.000000
siesta: Emeta   =         0.000000
siesta: Emolmec =         0.000000
siesta: Ekinion =         0.000000
siesta: Eharris =   -119137.065312
siesta: Etot    =   -119137.065312
siesta: FreeEng =   -119137.352025

siesta: Final energy (eV):
siesta:  Band Struct. =  -11034.627742
siesta:       Kinetic =   88605.553953
siesta:       Hartree =  580575.976713
siesta:       Eldau   =       0.000000
siesta:       Eso     =       0.000000
siesta:    Ext. field =       0.000000
siesta:   Exch.-corr. =  -20160.235875
siesta:  Ion-electron =-1234401.221984
siesta:       Ion-ion =  466242.861881
siesta:       Ekinion =       0.000000
siesta:         Total = -119137.065312
siesta:         Fermi =      -1.908713

siesta: Atomic forces (eV/Ang):
siesta:      1   -0.487058   -0.486561   -0.749048
siesta:      2    0.486909   -0.484135   -0.750492
siesta:      3    0.483727    0.485078   -0.756516
siesta:      4   -0.482765    0.486388   -0.753321
siesta:      5    0.000038   -0.998024    0.252499
siesta:      6    0.000675    0.001276   -0.660523
siesta:      7   -1.228182   -1.229089    0.073776
siesta:      8    1.228376   -1.229937    0.072956
siesta:      9    0.999009    0.000483    0.254932
siesta:     10    1.230832    1.230550    0.072354
siesta:     11   -0.998457    0.000452    0.253628
siesta:     12   -1.230064    1.229128    0.072378
siesta:     13    0.000075    0.998449    0.256431
siesta:     14    0.000319   -0.782115   -0.015856
siesta:     15   -0.002657   -0.004190   -0.019234
siesta:     16   -1.201025   -1.201814    0.039359
siesta:     17    1.200849   -1.200900    0.039783
siesta:     18    0.785796    0.000403   -0.014903
siesta:     19    1.202405    1.202272    0.040888
siesta:     20   -0.783480    0.000449   -0.015334
siesta:     21   -1.200709    1.201322    0.040368
siesta:     22    0.000270    0.786388   -0.014180
siesta:     23    0.000308   -0.879569   -0.084900
siesta:     24   -0.003011   -0.003942    0.046272
siesta:     25    0.882280   -0.000379   -0.091116
siesta:     26   -0.880461   -0.000027   -0.087396
siesta:     27   -0.000049    0.882357   -0.093373
siesta:     28   -1.123515   -1.124153    0.001769
siesta:     29    1.124154   -1.124244    0.002279
siesta:     30    1.124447    1.124384    0.004060
siesta:     31   -1.123720    1.124209    0.002957
siesta:     32   -0.000250   -0.912776    0.079498
siesta:     33   -0.000634    0.000069   -0.034697
siesta:     34   -1.196351   -1.196382   -0.048549
siesta:     35    1.197676   -1.197986   -0.048255
siesta:     36    0.912583   -0.001251    0.080939
siesta:     37    1.201122    1.201778   -0.047045
siesta:     38   -0.912512   -0.001124    0.079904
siesta:     39   -1.199034    1.199418   -0.048186
siesta:     40   -0.000376    0.911579    0.081400
siesta:     41    0.000519   -0.789981   -0.006648
siesta:     42    0.000762    0.002098    0.058954
siesta:     43   -1.177455   -1.177124   -0.053965
siesta:     44    1.176693   -1.173572   -0.056224
siesta:     45    0.788934    0.000520   -0.005779
siesta:     46    1.169595    1.170514   -0.061019
siesta:     47   -0.789418    0.000670   -0.006361
siesta:     48   -1.170101    1.173804   -0.058434
siesta:     49    0.000366    0.787588   -0.005562
siesta:     50    0.002226   -1.032113   -0.222535
siesta:     51   -0.001760   -0.003382    0.310614
siesta:     52    1.040429    0.004971   -0.211593
siesta:     53   -1.035192    0.004778   -0.218514
siesta:     54    0.002437    1.042246   -0.207460
siesta:     55   -0.756772   -0.758759    0.500158
siesta:     56    0.753243   -0.759300    0.500556
siesta:     57    0.754329    0.752837    0.500233
siesta:     58   -0.756576    0.751012    0.501516
siesta:     59    0.088372    0.184037    1.668192
siesta:     60   -0.230100   -0.256441   -0.709503
siesta:     61    0.499852    1.644865    0.906669
siesta:     62   -0.144473   -0.380507    0.655889
siesta:     63   -1.888668   -1.783163   -1.325585
siesta:     64    1.060861    0.384490    0.352214
siesta:     65    0.604413    0.939777    2.559220
siesta:     66    0.539453    1.335504    0.113409
siesta:     67    0.695392   -0.659128    0.234446
siesta:     68   -0.018756    0.622360    0.505903
siesta:     69    0.162081    0.287744   -0.833065
siesta:     70   -0.608163   -0.192478   -0.070504
siesta:     71   -0.782540   -2.552448   -1.617460
siesta:     72    0.298200    0.638335    0.257834
siesta:     73    1.293941    0.298900   -0.923907
siesta:     74   -0.887917   -0.282144    0.335818
siesta:     75   -0.529552   -0.496201    2.858091
siesta:     76   -0.477834   -1.214912    0.115678
siesta:     77   -0.669766    0.547697   -0.115765
siesta:     78    0.065967   -0.395594    0.521938
siesta:     79   -0.256739   -0.420737   -0.618051
siesta:     80    0.623857    0.162459   -0.052899
siesta:     81    0.653644    2.195746   -2.501454
siesta:     82   -0.284504   -0.616882    0.402364
siesta:     83   -1.296535   -0.327824   -0.737895
siesta:     84    0.891868    0.315440    0.211658
siesta:     85    0.711165    0.972054    2.838310
siesta:     86    0.475877    1.215423   -0.213861
siesta:     87    0.665808   -0.578814   -0.095486
siesta:     88   -0.031160    0.467091    0.433770
siesta:     89    0.197348    0.322009   -0.675770
siesta:     90   -0.625371   -0.157614    0.026364
siesta:     91   -0.817807   -2.612469   -2.138675
siesta:     92    0.317329    0.694136    0.287718
siesta:     93    1.228237    0.145877   -0.830637
siesta:     94   -0.868227   -0.260788    0.318983
siesta:     95   -0.521062   -0.467350    3.100912
siesta:     96   -0.474802   -1.222061   -0.016971
siesta:     97   -0.676714    0.558153   -0.169069
siesta:     98    0.062704   -0.374293    0.499235
siesta:     99   -0.231212   -0.447246   -0.579241
siesta:    100    0.625894    0.154926   -0.039541
siesta:    101    0.669061    2.199983   -2.712266
siesta:    102   -0.299830   -0.636634    0.439545
siesta:    103   -1.271101   -0.246017   -0.686166
siesta:    104    0.879165    0.302745    0.206685
siesta:    105    0.757881    1.095916    3.057266
siesta:    106    0.439246    1.133267   -0.324216
siesta:    107    0.674804   -0.586110   -0.126131
siesta:    108   -0.031950    0.449738    0.426136
siesta:    109    0.185813    0.339495   -0.661362
siesta:    110   -0.624288   -0.157217    0.032529
siesta:    111   -0.862239   -2.717672   -2.350413
siesta:    112    0.338783    0.737050    0.349605
siesta:    113    1.188670    0.062784   -0.757619
siesta:    114   -0.853777   -0.255497    0.302195
siesta:    115   -0.504248   -0.486531    3.512592
siesta:    116   -0.424739   -1.136120   -0.246380
siesta:    117   -0.699379    0.543537   -0.214300
siesta:    118    0.057354   -0.331878    0.505700
siesta:    119   -0.216225   -0.465425   -0.578642
siesta:    120    0.629617    0.159633   -0.031071
siesta:    121    0.739442    2.126750   -3.135245
siesta:    122   -0.351864   -0.717514    0.685709
siesta:    123   -1.087687    0.209303   -0.109364
siesta:    124    0.861559    0.475281    0.256365
siesta:    125   -1.252165   -3.933012   -0.041041
siesta:    126   -0.449805   -1.346090   -3.261581
siesta:    127    0.848591   -0.006887    0.842080
siesta:    128    0.304579    0.392209   -0.690280
siesta:    129   -0.716866   -0.302356    0.080505
siesta:    130    0.109984    0.125264   -0.325858
siesta:    131   -0.629869   -0.407421    0.273131
siesta:    132    0.425327    0.435804   -0.148122
siesta:    133    1.876265    4.813240    1.686736
siesta:    134   -0.101504   -0.126074    0.557667
siesta:    135   -0.053554   -0.165937   -1.741998
siesta:    136   -0.751409    0.760819   -0.506429
siesta:    137    0.754286    0.761663   -0.506713
siesta:    138    0.763138   -0.754671   -0.502347
siesta:    139   -0.761286   -0.754929   -0.502156
siesta:    140   -0.001009    1.036335    0.217799
siesta:    141   -1.040259   -0.002760    0.211616
siesta:    142    1.038923   -0.002991    0.215124
siesta:    143   -0.000970    0.001332   -0.325034
siesta:    144   -0.000776   -1.040990    0.205736
siesta:    145    0.000329    0.794555   -0.000339
siesta:    146   -1.180831    1.178484    0.060684
siesta:    147   -0.790914   -0.000672   -0.002421
siesta:    148    1.182918    1.179543    0.060060
siesta:    149    0.792547   -0.000850   -0.001341
siesta:    150    1.173113   -1.172713    0.065894
siesta:    151   -1.170360   -1.170975    0.066751
siesta:    152   -0.001589   -0.002721   -0.055736
siesta:    153    0.000503   -0.791508   -0.001455
siesta:    154    0.000532    0.913758   -0.082304
siesta:    155   -1.198224    1.198702    0.051735
siesta:    156   -0.911144    0.001907   -0.083190
siesta:    157    1.197933    1.199137    0.052522
siesta:    158    0.912952    0.001765   -0.082372
siesta:    159    1.202585   -1.200992    0.049645
siesta:    160   -1.202910   -1.200606    0.049591
siesta:    161   -0.000828   -0.001041    0.036380
siesta:    162    0.000674   -0.912541   -0.084374
siesta:    163   -1.125127    1.126871   -0.001746
siesta:    164    1.126677    1.126712   -0.002082
siesta:    165    1.127647   -1.124667   -0.001908
siesta:    166   -1.125693   -1.124416   -0.001973
siesta:    167    0.000534    0.884756    0.083015
siesta:    168   -0.882680    0.000572    0.087689
siesta:    169    0.883986    0.000677    0.085391
siesta:    170   -0.000330   -0.000047   -0.047986
siesta:    171    0.000426   -0.883047    0.090234
siesta:    172    0.000162    0.788878    0.015089
siesta:    173   -1.203258    1.200681   -0.039834
siesta:    174   -0.788434    0.000527    0.013629
siesta:    175    1.203992    1.201340   -0.040711
siesta:    176    0.788286    0.000198    0.014264
siesta:    177    1.199502   -1.200801   -0.040511
siesta:    178   -1.198861   -1.200243   -0.041556
siesta:    179   -0.000848   -0.000136    0.014692
siesta:    180    0.000487   -0.789332    0.012731
siesta:    181   -0.000291    0.998141   -0.252201
siesta:    182   -1.227996    1.229887   -0.072117
siesta:    183   -0.996314   -0.000677   -0.253597
siesta:    184    1.229398    1.230152   -0.073136
siesta:    185    0.997620   -0.000814   -0.253228
siesta:    186    1.232358   -1.229479   -0.071503
siesta:    187   -1.231174   -1.229434   -0.071208
siesta:    188   -0.001407   -0.001613    0.656726
siesta:    189   -0.000148   -0.997248   -0.254229
siesta:    190   -0.489669    0.487782    0.752788
siesta:    191    0.489951    0.488746    0.751998
siesta:    192    0.487026   -0.487580    0.753624
siesta:    193   -0.486884   -0.486748    0.755161
siesta: ----------------------------------------
siesta:    Tot    0.022073   -0.003143   -0.040054

siesta: Stress tensor (static) (eV/Ang**3):
siesta:    -0.001733   -0.000006   -0.000002
siesta:    -0.000006   -0.001598   -0.000004
siesta:    -0.000002   -0.000004   -0.001027

siesta: Cell volume =      87724.536210 Ang**3

siesta: Pressure (static):
siesta:                Solid            Molecule  Units
siesta:           0.00001582         -0.00000011  Ry/Bohr**3
siesta:           0.00145266         -0.00001003  eV/Ang**3
siesta:           2.32743918         -0.01606745  kBar
(Free)E+ p_basis*V_orbitals  =     -119085.395289
(Free)Eharris+ p_basis*V_orbitals  =     -119085.395288

siesta: Total spin polarization (Qup-Qdown) =    0.982988

siesta: Electric dipole (a.u.)  =    0.013790   -2.540496   -1.226386
siesta: Electric dipole (Debye) =    0.035051   -6.457301   -3.117165

dhscf: Vacuum level (max, mean) =    3.064978    0.008264 eV

timer: Elapsed wall time (sec) =   26620.976
timer: CPU execution times (sec):

Routine            Calls   Time/call    Tot.time        %
siesta                 1   26615.411   26615.411   100.00
Setup                  1       0.244       0.244     0.00
bands                  1       0.000       0.000     0.00
KSV_init               1       0.000       0.000     0.00
IterGeom               1   26589.913   26589.913    99.90
state_init             1       1.690       1.690     0.01
hsparse                1       0.021       0.021     0.00
overlap                1       1.646       1.646     0.01
Setup_H0               1      44.479      44.479     0.17
naefs                  2       0.002       0.003     0.00
MolMec                 2       0.000       0.000     0.00
kinefsm                2       0.866       1.733     0.01
nlefsm                 2       4.663       9.326     0.04
DHSCF_Init             1      33.719      33.719     0.13
DHSCF1                 1       0.351       0.351     0.00
INITMESH               1       0.000       0.000     0.00
DHSCF2                 1      33.368      33.368     0.13
REMESH                 1       5.399       5.399     0.02
REORD                303       0.232      70.389     0.26
PHION                  1      12.117      12.117     0.05
COMM_BSC             298       0.233      69.335     0.26
POISON                75      10.894     817.026     3.07
fft                  150       4.460     668.938     2.51
IterSCF               71     373.208   26497.751    99.56
setup_H               72      27.144    1954.385     7.34
DHSCF                 74      27.128    2007.484     7.54
DHSCF3                74      26.855    1987.254     7.47
rhoofd                74       3.041     225.058     0.85
CellXC                74       3.551     262.763     0.99
cellXC                74       3.551     262.763     0.99
vmat                  73       2.572     187.740     0.71
writeHSX              73       0.030       2.208     0.01
compute_dm            71     345.665   24542.239    92.21
diagon                71     345.663   24542.064    92.21
c-eigval            1988       3.936    7825.146    29.40
c-buildHS           1988       0.007      14.120     0.05
cdiag               3976       5.807   23088.112    86.75
cdiag1              3976       0.532    2113.749     7.94
cdiag2              3976       1.253    4983.663    18.72
cdiag3              3976       3.517   13984.990    52.54
cdiag4              3976       0.504    2005.390     7.53
c-eigvec            1988       7.692   15291.252    57.45
c-buildD            1988       0.717    1425.139     5.35
MIXER                 70       0.010       0.723     0.00
PostSCF                1      45.984      45.984     0.17
DHSCF4                 1      20.230      20.230     0.08
dfscf                  1      13.957      13.957     0.05
overfsm                1       0.053       0.053     0.00
state_analysis         1       0.002       0.002     0.00
siesta_move            1       0.000       0.000     0.00
Analysis               1      25.219      25.219     0.09
optical                1       0.000       0.000     0.00
  
>> End of run:   5-DEC-2023   2:31:05
Job completed
