
                           ***********************       
                           *  WELCOME TO SIESTA  *       
                           ***********************       

reinit: Reading from standard input
reinit: Dumped input in INPUT_TMP.92536
************************** Dump of input data file ****************************
SystemName  em
SystemLabel em
==================================================
==================================================
# SPECIES AND BASIS
# Number of species
NumberOfSpecies 5
%block ChemicalSpeciesLabel
  1   79  Au
  2    7  N
  3    6  C
  4    1  H
  5    8  O
%endblock ChemicalSpeciesLabel
%block    PAO.BasisSizes
  Au        SZ
   N        DZP
   C        DZP
   H        DZP
   O        DZP
%endblock PAO.BasisSizes
%block PS.lmax
  Au  2
%endblock PS.lmax
==================================================
==================================================
# K-points
%block kgrid_Monkhorst_Pack
3   0   0   0.0
0   3   0   0.0
0   0   3   0.0
%endblock kgrid_Monkhorst_Pack
T CELL AND ATOMIC POSITIONS
==================================================
==================================================
# UNIT CELL AND ATOMIC POSITIONS
# UNIT CELL
LatticeConstant       1.00 Ang
%block LatticeVectors
30.00000000   0.00000000000   0.0000000000
0.000000000   30.0000000000   0.0000000000
0.000000000   0.00000000000  86.4717069000
%endblock LatticeVectors
# Atomic coordinates
NumberOfAtoms 193
AtomicCoordinatesFormat ScaledCartesian
%block AtomicCoordinatesAndAtomicSpecies < ../em.fdf
==================================================
==================================================
# General variables
#ElectronicTemperature  100 K
MeshCutoff           350. Ry
xc.functional         LDA           # Exchange-correlation functional
xc.authors            CA
SpinPolarized .true.
SpinOrbit	.true.
SolutionMethod diagon
#SolutionMethod Transiesta
NetCharge		-1
==================================================
==================================================
# SCF variables
DM.MixSCF1   T
MaxSCFIterations      300           # Maximum number of SCF iter
DM.MixingWeight       0.03          # New DM amount for next SCF cycle
DM.Tolerance          1.d-4         # Tolerance in maximum difference
DM.UseSaveDM          true          # to use continuation files
DM.NumberPulay         5
Diag.DivideAndConquer  no
Diag.ParallelOverK     yes
==================================================
==================================================
# MD variables
MD.FinalTimeStep 1
MD.TypeOfRun CG
MD.NumCGsteps     000
MD.UseSaveXV      .true.
==================================================
==================================================
# Output variables
WriteMullikenPop                1
WriteBands                      .false.
SaveRho                         .false.
SaveDeltaRho                    .false.
SaveHS                          .true.
SaveElectrostaticPotential      True
SaveTotalPotential              no
WriteCoorXmol                   .true.
WriteMDXmol                     .true.
WriteMDhistory                  .false.
WriteEigenvalues                yes
==================================================
==================================================
# Transiesta information
# GF OPTIONS
TS.ComplexContour.Emin    -30.0 eV
TS.ComplexContour.NPoles       10
TS.ComplexContour.NCircle      30
TS.ComplexContour.NLine        10
# BIAS OPTIONS
TS.biasContour.NumPoints       00
# TS OPTIONS
TS.Voltage 0.000000 eV
# TBT OPTIONS
TS.TBT.Emin -5.0 eV
TS.TBT.Emax +5.0 eV
TS.TBT.NPoints 500
TS.TBT.NEigen 3
TS.TBT.Eta        0.000001 Ry
# Write hamiltonian
TS.SaveHS   .true.
# LEFT ELECTRODE
TS.HSFileLeft  ./Au_Elec_ABC.TSHS
#TS.ReplicateA1Left    1
#TS.ReplicateA2Left    1
TS.NumUsedAtomsLeft    9
TS.BufferAtomsLeft     0
# RIGHT ELECTRODE
TS.HSFileRight  ./Au_Elec_ABC.TSHS
#TS.ReplicateA1Right   1
#TS.ReplicateA2Right   1
TS.NumUsedAtomsRight   9
TS.BufferAtomsRight    0
==================================================
==================================================
************************** End of input data file *****************************

reinit: -----------------------------------------------------------------------
reinit: System Name: em
reinit: -----------------------------------------------------------------------
reinit: System Label: em
reinit: -----------------------------------------------------------------------
Siesta Version: siesta-4.1--736
Architecture  : unknown
Compiler flags: gfortran -O2 -fPIC -ftree-vectorize -fallow-argument-mismatch
PP flags      : -DFC_HAVE_ABORT
Libraries     : libsiestaLAPACK.a libsiestaBLAS.a
SERIAL version

* Running in serial mode
>> Start of run:  10-JAN-2024  18:30:59

initatom: Reading input for the pseudopotentials and atomic orbitals ----------
Species number:   1 Atomic number:   79 Label: Au
Species number:   2 Atomic number:    7 Label: N
Species number:   3 Atomic number:    6 Label: C
Species number:   4 Atomic number:    1 Label: H
Species number:   5 Atomic number:    8 Label: O

Ground state valence configuration:   6s01  5d10
Reading pseudopotential information in formatted form from Au.psf

Pseudopotential generated from a relativistic atomic calculation
There are spin-orbit pseudopotentials available
Spin-orbit interaction is not included in this calculation

Valence configuration for pseudopotential generation:
6s( 1.00) rc: 2.60
6p( 0.00) rc: 2.77
5d(10.00) rc: 2.60
5f( 0.00) rc: 2.60
Ground state valence configuration:   2s02  2p03
Reading pseudopotential information in formatted form from N.psf

Pseudopotential generated from a relativistic atomic calculation
There are spin-orbit pseudopotentials available
Spin-orbit interaction is not included in this calculation

Valence configuration for pseudopotential generation:
2s( 2.00) rc: 1.48
2p( 3.00) rc: 1.48
3d( 0.00) rc: 1.48
4f( 0.00) rc: 1.48
Ground state valence configuration:   2s02  2p02
Reading pseudopotential information in formatted form from C.psf

Pseudopotential generated from a relativistic atomic calculation
There are spin-orbit pseudopotentials available
Spin-orbit interaction is not included in this calculation

Valence configuration for pseudopotential generation:
2s( 2.00) rc: 1.54
2p( 2.00) rc: 1.54
3d( 0.00) rc: 1.54
4f( 0.00) rc: 1.54
Ground state valence configuration:   1s01
Reading pseudopotential information in formatted form from H.psf

Pseudopotential generated from a relativistic atomic calculation
There are spin-orbit pseudopotentials available
Spin-orbit interaction is not included in this calculation

Valence configuration for pseudopotential generation:
1s( 1.00) rc: 1.31
2p( 0.00) rc: 1.31
3d( 0.00) rc: 0.37
4f( 0.00) rc: 1.31
Ground state valence configuration:   2s02  2p04
Reading pseudopotential information in formatted form from O.psf

Pseudopotential generated from a relativistic atomic calculation
There are spin-orbit pseudopotentials available
Spin-orbit interaction is not included in this calculation

Valence configuration for pseudopotential generation:
2s( 2.00) rc: 1.47
2p( 4.00) rc: 1.47
3d( 0.00) rc: 1.47
4f( 0.00) rc: 1.47
resizes: Read basis size for species Au = sz                  
resizes: Read basis size for species N = dzp                 
resizes: Read basis size for species C = dzp                 
resizes: Read basis size for species H = dzp                 
resizes: Read basis size for species O = dzp                 
relmxkb: Read Max KB Ang. Momentum=    2 for species Au
For N, standard SIESTA heuristics set lmxkb to 3
 (one more than the basis l, including polarization orbitals).
Use PS.lmax or PS.KBprojectors blocks to override.
For C, standard SIESTA heuristics set lmxkb to 3
 (one more than the basis l, including polarization orbitals).
Use PS.lmax or PS.KBprojectors blocks to override.
For H, standard SIESTA heuristics set lmxkb to 2
 (one more than the basis l, including polarization orbitals).
Use PS.lmax or PS.KBprojectors blocks to override.
For O, standard SIESTA heuristics set lmxkb to 3
 (one more than the basis l, including polarization orbitals).
Use PS.lmax or PS.KBprojectors blocks to override.

<basis_specs>
===============================================================================
Au                   Z=  79    Mass=  196.97        Charge= 0.17977+309
Lmxo=2 Lmxkb= 2    BasisType=split      Semic=F
L=0  Nsemic=0  Cnfigmx=6
          n=1  nzeta=1  polorb=0
            splnorm:   0.15000    
               vcte:    0.0000    
               rinn:    0.0000    
               qcoe:    0.0000    
               qyuk:    0.0000    
               qwid:   0.10000E-01
                rcs:    0.0000    
            lambdas:    1.0000    
L=1  Nsemic=0  Cnfigmx=6
L=2  Nsemic=0  Cnfigmx=5
          n=1  nzeta=1  polorb=0
            splnorm:   0.15000    
               vcte:    0.0000    
               rinn:    0.0000    
               qcoe:    0.0000    
               qyuk:    0.0000    
               qwid:   0.10000E-01
                rcs:    0.0000    
            lambdas:    1.0000    
-------------------------------------------------------------------------------
L=0  Nkbl=1  erefs: 0.17977+309
L=1  Nkbl=1  erefs: 0.17977+309
L=2  Nkbl=1  erefs: 0.17977+309
===============================================================================
</basis_specs>

atom: Called for Au                    (Z =  79)

read_vps: Pseudopotential generation method:
read_vps: ATM4.2.7  Troullier-Martins                       
Total valence charge:   11.00000

xc_check: Exchange-correlation functional:
xc_check: Ceperley-Alder
V l=0 = -2*Zval/r beyond r=  3.7361
V l=1 = -2*Zval/r beyond r=  3.7361
V l=2 = -2*Zval/r beyond r=  3.7361
All V_l potentials equal beyond r=  2.6994
This should be close to max(r_c) in ps generation
All pots = -2*Zval/r beyond r=  3.7361
Using large-core scheme for Vlocal

atom: Estimated core radius    3.73611

atom: Including non-local core corrections could be a good idea
atom: Maximum radius for 4*pi*r*r*local-pseudopot. charge    4.07775
atom: Maximum radius for r*vlocal+2*Zval:    3.78310
GHOST: No ghost state for L =  0
GHOST: No ghost state for L =  1
GHOST: No ghost state for L =  2

KBgen: Kleinman-Bylander projectors: 
   l= 0   rc=  2.802581   el= -0.445644   Ekb=  3.908625   kbcos=  0.222548
   l= 1   rc=  2.802581   el= -0.066825   Ekb=  1.555330   kbcos=  0.234902
   l= 2   rc=  2.767767   el= -0.526351   Ekb= -5.977941   kbcos= -0.723482

KBgen: Total number of  Kleinman-Bylander projectors:    9
atom: -------------------------------------------------------------------------

atom: SANKEY-TYPE ORBITALS:

SPLIT: Orbitals with angular momentum L= 0

SPLIT: Basis orbitals for state 6s

SPLIT: PAO cut-off radius determined from an
SPLIT: energy shift=  0.020000 Ry

   izeta = 1
                 lambda =    1.000000
                     rc =    6.083298
                 energy =   -0.427287
                kinetic =    0.392598
    potential(screened) =   -0.819885
       potential(ionic) =   -8.596164

SPLIT: Orbitals with angular momentum L= 2

SPLIT: Basis orbitals for state 5d

SPLIT: PAO cut-off radius determined from an
SPLIT: energy shift=  0.020000 Ry

   izeta = 1
                 lambda =    1.000000
                     rc =    4.286818
                 energy =   -0.508109
                kinetic =    4.851847
    potential(screened) =   -5.359956
       potential(ionic) =  -16.120163
atom: Total number of Sankey-type orbitals:  6

atm_pop: Valence configuration (for local Pseudopot. screening):
 6s( 1.00)                                                            
 6p( 0.00)                                                            
 5d(10.00)                                                            
Vna: chval, zval:   11.00000  11.00000

Vna:  Cut-off radius for the neutral-atom potential:   6.083298

atom: _________________________________________________________________________

<basis_specs>
===============================================================================
N                    Z=   7    Mass=  14.010        Charge= 0.17977+309
Lmxo=1 Lmxkb= 3    BasisType=split      Semic=F
L=0  Nsemic=0  Cnfigmx=2
          n=1  nzeta=2  polorb=0
            splnorm:   0.15000    
               vcte:    0.0000    
               rinn:    0.0000    
               qcoe:    0.0000    
               qyuk:    0.0000    
               qwid:   0.10000E-01
                rcs:    0.0000      0.0000    
            lambdas:    1.0000      1.0000    
L=1  Nsemic=0  Cnfigmx=2
          n=1  nzeta=2  polorb=1
            splnorm:   0.15000    
               vcte:    0.0000    
               rinn:    0.0000    
               qcoe:    0.0000    
               qyuk:    0.0000    
               qwid:   0.10000E-01
                rcs:    0.0000      0.0000    
            lambdas:    1.0000      1.0000    
-------------------------------------------------------------------------------
L=0  Nkbl=1  erefs: 0.17977+309
L=1  Nkbl=1  erefs: 0.17977+309
L=2  Nkbl=1  erefs: 0.17977+309
L=3  Nkbl=1  erefs: 0.17977+309
===============================================================================
</basis_specs>

atom: Called for N                     (Z =   7)

read_vps: Pseudopotential generation method:
read_vps: ATM4.2.7  Troullier-Martins                       
Total valence charge:    5.00000

xc_check: Exchange-correlation functional:
xc_check: Ceperley-Alder
V l=0 = -2*Zval/r beyond r=  1.4606
V l=1 = -2*Zval/r beyond r=  1.4606
V l=2 = -2*Zval/r beyond r=  1.4606
V l=3 = -2*Zval/r beyond r=  1.4606
All V_l potentials equal beyond r=  1.4606
This should be close to max(r_c) in ps generation
All pots = -2*Zval/r beyond r=  1.4606

VLOCAL1: 99.0% of the norm of Vloc inside     20.347 Ry
VLOCAL1: 99.9% of the norm of Vloc inside     46.372 Ry
atom: Maximum radius for 4*pi*r*r*local-pseudopot. charge    1.76189
atom: Maximum radius for r*vlocal+2*Zval:    1.53550
GHOST: No ghost state for L =  0
GHOST: No ghost state for L =  1
GHOST: No ghost state for L =  2
GHOST: No ghost state for L =  3

KBgen: Kleinman-Bylander projectors: 
   l= 0   rc=  1.675947   el= -1.353297   Ekb=  4.892109   kbcos=  0.337655
   l= 1   rc=  1.655124   el= -0.532333   Ekb= -5.549267   kbcos= -0.433001
   l= 2   rc=  2.047085   el=  0.002346   Ekb= -1.340614   kbcos= -0.007544
   l= 3   rc=  2.348881   el=  0.003449   Ekb= -0.558194   kbcos= -0.000959

KBgen: Total number of  Kleinman-Bylander projectors:   16
atom: -------------------------------------------------------------------------

atom: SANKEY-TYPE ORBITALS:
atom: Selected multiple-zeta basis: split     

SPLIT: Orbitals with angular momentum L= 0

SPLIT: Basis orbitals for state 2s

SPLIT: PAO cut-off radius determined from an
SPLIT: energy shift=  0.020000 Ry

   izeta = 1
                 lambda =    1.000000
                     rc =    3.683980
                 energy =   -1.334887
                kinetic =    1.204128
    potential(screened) =   -2.539016
       potential(ionic) =   -8.130297

   izeta = 2
                 rmatch =    2.905100
              splitnorm =    0.150000
                 energy =   -1.140084
                kinetic =    1.810869
    potential(screened) =   -2.950953
       potential(ionic) =   -8.949068

SPLIT: Orbitals with angular momentum L= 1

SPLIT: Basis orbitals for state 2p

SPLIT: PAO cut-off radius determined from an
SPLIT: energy shift=  0.020000 Ry

   izeta = 1
                 lambda =    1.000000
                     rc =    4.280232
                 energy =   -0.512164
                kinetic =    3.599466
    potential(screened) =   -4.111630
       potential(ionic) =   -9.551775

   izeta = 2
                 rmatch =    2.941647
              splitnorm =    0.150000
                 energy =   -0.291934
                kinetic =    5.358713
    potential(screened) =   -5.650647
       potential(ionic) =  -11.695624

POLgen: Perturbative polarization orbital with L=  2

POLgen: Polarization orbital for state 2p

   izeta = 1
                     rc =    4.280232
                 energy =    1.826318
                kinetic =    3.687078
    potential(screened) =   -1.860760
       potential(ionic) =   -6.363680
atom: Total number of Sankey-type orbitals: 13

atm_pop: Valence configuration (for local Pseudopot. screening):
 2s( 2.00)                                                            
 2p( 3.00)                                                            
Vna: chval, zval:    5.00000   5.00000

Vna:  Cut-off radius for the neutral-atom potential:   4.280232

atom: _________________________________________________________________________

<basis_specs>
===============================================================================
C                    Z=   6    Mass=  12.010        Charge= 0.17977+309
Lmxo=1 Lmxkb= 3    BasisType=split      Semic=F
L=0  Nsemic=0  Cnfigmx=2
          n=1  nzeta=2  polorb=0
            splnorm:   0.15000    
               vcte:    0.0000    
               rinn:    0.0000    
               qcoe:    0.0000    
               qyuk:    0.0000    
               qwid:   0.10000E-01
                rcs:    0.0000      0.0000    
            lambdas:    1.0000      1.0000    
L=1  Nsemic=0  Cnfigmx=2
          n=1  nzeta=2  polorb=1
            splnorm:   0.15000    
               vcte:    0.0000    
               rinn:    0.0000    
               qcoe:    0.0000    
               qyuk:    0.0000    
               qwid:   0.10000E-01
                rcs:    0.0000      0.0000    
            lambdas:    1.0000      1.0000    
-------------------------------------------------------------------------------
L=0  Nkbl=1  erefs: 0.17977+309
L=1  Nkbl=1  erefs: 0.17977+309
L=2  Nkbl=1  erefs: 0.17977+309
L=3  Nkbl=1  erefs: 0.17977+309
===============================================================================
</basis_specs>

atom: Called for C                     (Z =   6)

read_vps: Pseudopotential generation method:
read_vps: ATM4.2.7  Troullier-Martins                       
Total valence charge:    4.00000

xc_check: Exchange-correlation functional:
xc_check: Ceperley-Alder
V l=0 = -2*Zval/r beyond r=  1.5227
V l=1 = -2*Zval/r beyond r=  1.5227
V l=2 = -2*Zval/r beyond r=  1.5227
V l=3 = -2*Zval/r beyond r=  1.5038
All V_l potentials equal beyond r=  1.5227
This should be close to max(r_c) in ps generation
All pots = -2*Zval/r beyond r=  1.5227

VLOCAL1: 99.0% of the norm of Vloc inside     18.722 Ry
VLOCAL1: 99.9% of the norm of Vloc inside     42.668 Ry
atom: Maximum radius for 4*pi*r*r*local-pseudopot. charge    1.83678
atom: Maximum radius for r*vlocal+2*Zval:    1.58088
GHOST: No ghost state for L =  0
GHOST: No ghost state for L =  1
GHOST: No ghost state for L =  2
GHOST: No ghost state for L =  3

KBgen: Kleinman-Bylander projectors: 
   l= 0   rc=  1.769164   el= -1.002383   Ekb=  4.944706   kbcos=  0.320005
   l= 1   rc=  1.769164   el= -0.398438   Ekb= -4.111874   kbcos= -0.367023
   l= 2   rc=  2.107589   el=  0.002326   Ekb= -1.050436   kbcos= -0.009341
   l= 3   rc=  2.358593   el=  0.003420   Ekb= -0.444500   kbcos= -0.001214

KBgen: Total number of  Kleinman-Bylander projectors:   16
atom: -------------------------------------------------------------------------

atom: SANKEY-TYPE ORBITALS:
atom: Selected multiple-zeta basis: split     

SPLIT: Orbitals with angular momentum L= 0

SPLIT: Basis orbitals for state 2s

SPLIT: PAO cut-off radius determined from an
SPLIT: energy shift=  0.020000 Ry

   izeta = 1
                 lambda =    1.000000
                     rc =    4.191849
                 energy =   -0.984359
                kinetic =    0.881234
    potential(screened) =   -1.865594
       potential(ionic) =   -5.477335

   izeta = 2
                 rmatch =    3.431921
              splitnorm =    0.150000
                 energy =   -0.853663
                kinetic =    1.298382
    potential(screened) =   -2.152045
       potential(ionic) =   -5.997528

SPLIT: Orbitals with angular momentum L= 1

SPLIT: Basis orbitals for state 2p

SPLIT: PAO cut-off radius determined from an
SPLIT: energy shift=  0.020000 Ry

   izeta = 1
                 lambda =    1.000000
                     rc =    4.870301
                 energy =   -0.378923
                kinetic =    2.540340
    potential(screened) =   -2.919263
       potential(ionic) =   -6.428536

   izeta = 2
                 rmatch =    3.475094
              splitnorm =    0.150000
                 energy =   -0.214881
                kinetic =    3.815219
    potential(screened) =   -4.030100
       potential(ionic) =   -7.921348

POLgen: Perturbative polarization orbital with L=  2

POLgen: Polarization orbital for state 2p

   izeta = 1
                     rc =    4.870301
                 energy =    1.281120
                kinetic =    2.631157
    potential(screened) =   -1.350037
       potential(ionic) =   -4.295491
atom: Total number of Sankey-type orbitals: 13

atm_pop: Valence configuration (for local Pseudopot. screening):
 2s( 2.00)                                                            
 2p( 2.00)                                                            
Vna: chval, zval:    4.00000   4.00000

Vna:  Cut-off radius for the neutral-atom potential:   4.870301

atom: _________________________________________________________________________

<basis_specs>
===============================================================================
H                    Z=   1    Mass=  1.0100        Charge= 0.17977+309
Lmxo=0 Lmxkb= 2    BasisType=split      Semic=F
L=0  Nsemic=0  Cnfigmx=1
          n=1  nzeta=2  polorb=1
            splnorm:   0.15000    
               vcte:    0.0000    
               rinn:    0.0000    
               qcoe:    0.0000    
               qyuk:    0.0000    
               qwid:   0.10000E-01
                rcs:    0.0000      0.0000    
            lambdas:    1.0000      1.0000    
-------------------------------------------------------------------------------
L=0  Nkbl=1  erefs: 0.17977+309
L=1  Nkbl=1  erefs: 0.17977+309
L=2  Nkbl=1  erefs: 0.17977+309
===============================================================================
</basis_specs>

atom: Called for H                     (Z =   1)

read_vps: Pseudopotential generation method:
read_vps: ATM4.2.7  Troullier-Martins                       
Total valence charge:    1.00000

xc_check: Exchange-correlation functional:
xc_check: Ceperley-Alder
V l=0 = -2*Zval/r beyond r=  1.2977
V l=1 = -2*Zval/r beyond r=  1.2815
V l=2 = -2*Zval/r beyond r=  1.1307
All V_l potentials equal beyond r=  1.2977
This should be close to max(r_c) in ps generation
All pots = -2*Zval/r beyond r=  1.2977

VLOCAL1: 99.0% of the norm of Vloc inside     25.776 Ry
VLOCAL1: 99.9% of the norm of Vloc inside     58.745 Ry
atom: Maximum radius for 4*pi*r*r*local-pseudopot. charge    1.52711
atom: Maximum radius for r*vlocal+2*Zval:    1.28155
GHOST: No ghost state for L =  0
GHOST: No ghost state for L =  1
GHOST: No ghost state for L =  2

KBgen: Kleinman-Bylander projectors: 
   l= 0   rc=  1.452513   el= -0.467311   Ekb= -1.940806   kbcos= -0.353010
   l= 1   rc=  1.752576   el=  0.001430   Ekb= -0.484365   kbcos= -0.024070
   l= 2   rc=  1.774652   el=  0.002365   Ekb= -0.503986   kbcos= -0.001615

KBgen: Total number of  Kleinman-Bylander projectors:    9
atom: -------------------------------------------------------------------------

atom: SANKEY-TYPE ORBITALS:
atom: Selected multiple-zeta basis: split     

SPLIT: Orbitals with angular momentum L= 0

SPLIT: Basis orbitals for state 1s

SPLIT: PAO cut-off radius determined from an
SPLIT: energy shift=  0.020000 Ry

   izeta = 1
                 lambda =    1.000000
                     rc =    4.828263
                 energy =   -0.449360
                kinetic =    0.925772
    potential(screened) =   -1.375132
       potential(ionic) =   -1.911259

   izeta = 2
                 rmatch =    3.854947
              splitnorm =    0.150000
                 energy =   -0.336131
                kinetic =    1.498125
    potential(screened) =   -1.834256
       potential(ionic) =   -2.406171

POLgen: Perturbative polarization orbital with L=  1

POLgen: Polarization orbital for state 1s

   izeta = 1
                     rc =    4.828263
                 energy =    0.707058
                kinetic =    1.398648
    potential(screened) =   -0.691590
       potential(ionic) =   -1.171958
atom: Total number of Sankey-type orbitals:  5

atm_pop: Valence configuration (for local Pseudopot. screening):
 1s( 1.00)                                                            
Vna: chval, zval:    1.00000   1.00000

Vna:  Cut-off radius for the neutral-atom potential:   4.828263

atom: _________________________________________________________________________

<basis_specs>
===============================================================================
O                    Z=   8    Mass=  16.000        Charge= 0.17977+309
Lmxo=1 Lmxkb= 3    BasisType=split      Semic=F
L=0  Nsemic=0  Cnfigmx=2
          n=1  nzeta=2  polorb=0
            splnorm:   0.15000    
               vcte:    0.0000    
               rinn:    0.0000    
               qcoe:    0.0000    
               qyuk:    0.0000    
               qwid:   0.10000E-01
                rcs:    0.0000      0.0000    
            lambdas:    1.0000      1.0000    
L=1  Nsemic=0  Cnfigmx=2
          n=1  nzeta=2  polorb=1
            splnorm:   0.15000    
               vcte:    0.0000    
               rinn:    0.0000    
               qcoe:    0.0000    
               qyuk:    0.0000    
               qwid:   0.10000E-01
                rcs:    0.0000      0.0000    
            lambdas:    1.0000      1.0000    
-------------------------------------------------------------------------------
L=0  Nkbl=1  erefs: 0.17977+309
L=1  Nkbl=1  erefs: 0.17977+309
L=2  Nkbl=1  erefs: 0.17977+309
L=3  Nkbl=1  erefs: 0.17977+309
===============================================================================
</basis_specs>

atom: Called for O                     (Z =   8)

read_vps: Pseudopotential generation method:
read_vps: ATM4.2.7  Troullier-Martins                       
Total valence charge:    6.00000

xc_check: Exchange-correlation functional:
xc_check: Ceperley-Alder
V l=0 = -2*Zval/r beyond r=  1.4482
V l=1 = -2*Zval/r beyond r=  1.4482
V l=2 = -2*Zval/r beyond r=  1.4482
V l=3 = -2*Zval/r beyond r=  1.4482
All V_l potentials equal beyond r=  1.4482
This should be close to max(r_c) in ps generation
All pots = -2*Zval/r beyond r=  1.4482

VLOCAL1: 99.0% of the norm of Vloc inside     20.696 Ry
VLOCAL1: 99.9% of the norm of Vloc inside     47.167 Ry
atom: Maximum radius for 4*pi*r*r*local-pseudopot. charge    1.74697
atom: Maximum radius for r*vlocal+2*Zval:    1.52250
GHOST: No ghost state for L =  0
GHOST: No ghost state for L =  1
GHOST: No ghost state for L =  2
GHOST: No ghost state for L =  3

KBgen: Kleinman-Bylander projectors: 
   l= 0   rc=  1.682657   el= -1.744568   Ekb=  4.448678   kbcos=  0.289593
   l= 1   rc=  1.620715   el= -0.676113   Ekb= -7.152049   kbcos= -0.499084
   l= 2   rc=  2.055271   el=  0.002386   Ekb= -1.611701   kbcos= -0.006652
   l= 3   rc=  2.358267   el=  0.003508   Ekb= -0.656031   kbcos= -0.000879

KBgen: Total number of  Kleinman-Bylander projectors:   16
atom: -------------------------------------------------------------------------

atom: SANKEY-TYPE ORBITALS:
atom: Selected multiple-zeta basis: split     

SPLIT: Orbitals with angular momentum L= 0

SPLIT: Basis orbitals for state 2s

SPLIT: PAO cut-off radius determined from an
SPLIT: energy shift=  0.020000 Ry

   izeta = 1
                 lambda =    1.000000
                     rc =    3.305093
                 energy =   -1.725984
                kinetic =    1.585887
    potential(screened) =   -3.311870
       potential(ionic) =  -11.297253

   izeta = 2
                 rmatch =    2.510382
              splitnorm =    0.150000
                 energy =   -1.479369
                kinetic =    2.381175
    potential(screened) =   -3.860544
       potential(ionic) =  -12.454987

SPLIT: Orbitals with angular momentum L= 1

SPLIT: Basis orbitals for state 2p

SPLIT: PAO cut-off radius determined from an
SPLIT: energy shift=  0.020000 Ry

   izeta = 1
                 lambda =    1.000000
                     rc =    3.937239
                 energy =   -0.658357
                kinetic =    4.694922
    potential(screened) =   -5.353279
       potential(ionic) =  -13.084446

   izeta = 2
                 rmatch =    2.541963
              splitnorm =    0.150000
                 energy =   -0.362807
                kinetic =    7.020572
    potential(screened) =   -7.383379
       potential(ionic) =  -16.009048

POLgen: Perturbative polarization orbital with L=  2

POLgen: Polarization orbital for state 2p

   izeta = 1
                     rc =    3.937239
                 energy =    2.394886
                kinetic =    4.807985
    potential(screened) =   -2.413099
       potential(ionic) =   -8.736318
atom: Total number of Sankey-type orbitals: 13

atm_pop: Valence configuration (for local Pseudopot. screening):
 2s( 2.00)                                                            
 2p( 4.00)                                                            
Vna: chval, zval:    6.00000   6.00000

Vna:  Cut-off radius for the neutral-atom potential:   3.937239

atom: _________________________________________________________________________

prinput: Basis input ----------------------------------------------------------

PAO.BasisType split     

%block ChemicalSpeciesLabel
    1   79 Au                      # Species index, atomic number, species label
    2    7 N                       # Species index, atomic number, species label
    3    6 C                       # Species index, atomic number, species label
    4    1 H                       # Species index, atomic number, species label
    5    8 O                       # Species index, atomic number, species label
%endblock ChemicalSpeciesLabel

%block PAO.Basis                 # Define Basis set
Au                    2                    # Species label, number of l-shells
 n=6   0   1                         # n, l, Nzeta 
   6.083   
   1.000   
 n=5   2   1                         # n, l, Nzeta 
   4.287   
   1.000   
N                     2                    # Species label, number of l-shells
 n=2   0   2                         # n, l, Nzeta 
   3.684      2.905   
   1.000      1.000   
 n=2   1   2 P   1                   # n, l, Nzeta, Polarization, NzetaPol
   4.280      2.942   
   1.000      1.000   
C                     2                    # Species label, number of l-shells
 n=2   0   2                         # n, l, Nzeta 
   4.192      3.432   
   1.000      1.000   
 n=2   1   2 P   1                   # n, l, Nzeta, Polarization, NzetaPol
   4.870      3.475   
   1.000      1.000   
H                     1                    # Species label, number of l-shells
 n=1   0   2 P   1                   # n, l, Nzeta, Polarization, NzetaPol
   4.828      3.855   
   1.000      1.000   
O                     2                    # Species label, number of l-shells
 n=2   0   2                         # n, l, Nzeta 
   3.305      2.510   
   1.000      1.000   
 n=2   1   2 P   1                   # n, l, Nzeta, Polarization, NzetaPol
   3.937      2.542   
   1.000      1.000   
%endblock PAO.Basis

prinput: ----------------------------------------------------------------------

coor:   Atomic-coordinates input format  =     Cartesian coordinates
coor:                                          (in units of alat)

ioxv: Reading coordinates and velocities from file
! Info in XV file prevails over previous structure input

siesta: Atomic coordinates (Bohr) and species
siesta:      2.71925   2.71925   0.00000  1        1
siesta:      8.15774   2.71925   0.00000  1        2
siesta:      8.15774   8.15774   0.00000  1        3
siesta:      2.71925   8.15774   0.00000  1        4
siesta:      5.43849   0.00000   3.84559  1        5
siesta:      5.43849   5.43849   3.84559  1        6
siesta:      2.71925   2.71925   7.69119  1        7
siesta:      8.15774   2.71925   7.69119  1        8
siesta:     10.87698   5.43849   3.84559  1        9
siesta:      8.15774   8.15774   7.69119  1       10
siesta:      0.00000   5.43849   3.84559  1       11
siesta:      2.71925   8.15774   7.69119  1       12
siesta:      5.43849  10.87698   3.84559  1       13
siesta:      5.43849   0.00000  11.53678  1       14
siesta:      5.43849   5.43849  11.53678  1       15
siesta:      2.71925   2.71925  15.38238  1       16
siesta:      8.15774   2.71925  15.38238  1       17
siesta:     10.87698   5.43849  11.53678  1       18
siesta:      8.15774   8.15774  15.38238  1       19
siesta:      0.00000   5.43849  11.53678  1       20
siesta:      2.71925   8.15774  15.38238  1       21
siesta:      5.43849  10.87698  11.53678  1       22
siesta:      5.43849   0.00000  19.22797  1       23
siesta:      5.43849   5.43849  19.22797  1       24
siesta:     10.87698   5.43849  19.22797  1       25
siesta:      0.00000   5.43849  19.22797  1       26
siesta:      5.43849  10.87698  19.22797  1       27
siesta:      2.71925   2.71925  23.07357  1       28
siesta:      8.15774   2.71925  23.07357  1       29
siesta:      8.15774   8.15774  23.07357  1       30
siesta:      2.71925   8.15774  23.07357  1       31
siesta:      5.43849   0.00000  26.91916  1       32
siesta:      5.43849   5.43849  26.91916  1       33
siesta:      2.71925   2.71925  30.76475  1       34
siesta:      8.15774   2.71925  30.76475  1       35
siesta:     10.87698   5.43849  26.91916  1       36
siesta:      8.15774   8.15774  30.76475  1       37
siesta:      0.00000   5.43849  26.91916  1       38
siesta:      2.71925   8.15774  30.76475  1       39
siesta:      5.43849  10.87698  26.91916  1       40
siesta:      5.43849   0.00000  34.61035  1       41
siesta:      5.43849   5.43849  34.61035  1       42
siesta:      2.71925   2.71925  38.45594  1       43
siesta:      8.15774   2.71925  38.45594  1       44
siesta:     10.87698   5.43849  34.61035  1       45
siesta:      8.15774   8.15774  38.45594  1       46
siesta:      0.00000   5.43849  34.61035  1       47
siesta:      2.71925   8.15774  38.45594  1       48
siesta:      5.43849  10.87698  34.61035  1       49
siesta:      5.43849   0.00000  42.30154  1       50
siesta:      5.43849   5.43849  42.30154  1       51
siesta:     10.87698   5.43849  42.30154  1       52
siesta:      0.00000   5.43849  42.30154  1       53
siesta:      5.43849  10.87698  42.30154  1       54
siesta:      2.71925   2.71925  46.14713  1       55
siesta:      8.15774   2.71925  46.14713  1       56
siesta:      8.15774   8.15774  46.14713  1       57
siesta:      2.71925   8.15774  46.14713  1       58
siesta:      5.43849   5.43849  49.99272  1       59
siesta:      6.42625   7.97480  80.64561  4       60
siesta:      7.50272   6.58267  81.39498  2       61
siesta:      8.08118   6.49395  85.39643  1       62
siesta:      9.11159   4.99193  79.81222  3       63
siesta:     10.38734   6.19423  78.71297  4       64
siesta:      7.58526   3.52417  77.82686  3       65
siesta:      8.48522   3.13686  75.70618  5       66
siesta:     10.66535   3.18347  81.45822  3       67
siesta:     11.86390   2.00599  80.25646  4       68
siesta:     11.88603   4.25367  82.74009  4       69
siesta:      9.44044   1.94846  82.57856  4       70
siesta:      5.29281   2.64279  78.53096  2       71
siesta:      4.65698   3.01119  80.29855  4       72
siesta:      3.69560   1.23012  76.78237  3       73
siesta:      4.80916  -0.30718  75.96556  4       74
siesta:      2.85837   2.85281  74.51133  3       75
siesta:      2.58630   1.87600  72.40610  5       76
siesta:      1.40075   0.13621  78.16859  3       77
siesta:      0.22491  -0.92070  76.83874  4       78
siesta:      2.01547  -1.15345  79.66411  4       79
siesta:      0.24784   1.63498  79.01016  4       80
siesta:      2.35351   5.31389  74.98855  2       81
siesta:      2.93851   6.07218  76.65096  4       82
siesta:      1.68352   7.06426  72.96454  3       83
siesta:      0.22313   6.17599  71.80795  4       84
siesta:      3.90995   7.51764  71.14215  3       85
siesta:      3.54821   7.60454  68.83433  5       86
siesta:      0.68594   9.55054  74.06796  3       87
siesta:      0.23561  10.86643  72.53878  4       88
siesta:     -1.03610   9.20057  75.15864  4       89
siesta:      2.09003  10.42607  75.30840  4       90
siesta:      6.21715   7.81146  72.19857  2       91
siesta:      6.40067   7.78638  74.11154  4       92
siesta:      8.47540   8.10002  70.63991  3       93
siesta:      8.17456   9.64597  69.30078  4       94
siesta:      8.95819   5.75872  68.96885  3       95
siesta:      9.74520   5.99899  66.78814  5       96
siesta:     10.77404   8.67682  72.30475  3       97
siesta:     12.45334   8.90540  71.12196  4       98
siesta:     10.47726  10.43084  73.36083  4       99
siesta:     11.11548   7.13944  73.64662  4      100
siesta:      8.51055   3.47568  70.03974  2      101
siesta:      8.05021   3.35849  71.90306  4      102
siesta:      8.84957   1.15208  68.60058  3      103
siesta:     10.69871   1.18903  67.67578  4      104
siesta:      6.93323   0.90891  66.41600  3      105
siesta:      7.57139  -0.01329  64.37351  5      106
siesta:      8.67031  -1.14782  70.35472  3      107
siesta:      8.94456  -2.88259  69.26488  4      108
siesta:     10.12746  -1.05424  71.81937  4      109
siesta:      6.81634  -1.22890  71.27014  4      110
siesta:      4.53577   1.66655  66.91339  2      111
siesta:      4.06652   2.26931  68.67697  4      112
siesta:      2.55079   1.43504  65.02017  3      113
siesta:      2.70357  -0.42052  64.12075  4      114
siesta:      2.81833   3.34300  62.83339  3      115
siesta:      2.14699   2.76274  60.67248  5      116
siesta:     -0.05556   1.71641  66.25667  3      117
siesta:     -1.53236   1.52824  64.82307  4      118
siesta:     -0.33582   0.25782  67.69486  4      119
siesta:     -0.24095   3.57090  67.15566  4      120
siesta:      3.69601   5.66348  63.42816  2      121
siesta:      4.19688   6.07417  65.23640  4      122
siesta:      3.92355   7.62296  61.51005  3      123
siesta:      2.09789   7.95213  60.60299  4      124
siesta:      5.80351   6.78848  59.48011  3      125
siesta:      7.74564   5.62849  59.86657  5      126
siesta:      4.80826  10.13111  62.68618  3      127
siesta:      3.67905  10.43479  64.40007  4      128
siesta:      6.78785   9.98640  63.27096  4      129
siesta:      4.40518  12.45942  60.91719  3      130
siesta:      2.28154  12.59102  59.84727  5      131
siesta:      6.20789  14.00308  60.78835  5      132
siesta:      5.12571   7.59666  57.15778  5      133
siesta:      8.08118   6.49395  54.62731  1      134
siesta:      5.43849   5.43849  90.03101  1      135
siesta:      2.71925   8.15774  93.87661  1      136
siesta:      8.15774   8.15774  93.87661  1      137
siesta:      8.15774   2.71925  93.87661  1      138
siesta:      2.71925   2.71925  93.87661  1      139
siesta:      5.43849  10.87698  97.72220  1      140
siesta:      0.00000   5.43849  97.72220  1      141
siesta:     10.87698   5.43849  97.72220  1      142
siesta:      5.43849   5.43849  97.72220  1      143
siesta:      5.43849   0.00000  97.72220  1      144
siesta:      5.43849  10.87698 105.41339  1      145
siesta:      2.71925   8.15774 101.56780  1      146
siesta:      0.00000   5.43849 105.41339  1      147
siesta:      8.15774   8.15774 101.56780  1      148
siesta:     10.87698   5.43849 105.41339  1      149
siesta:      8.15774   2.71925 101.56780  1      150
siesta:      2.71925   2.71925 101.56780  1      151
siesta:      5.43849   5.43849 105.41339  1      152
siesta:      5.43849   0.00000 105.41339  1      153
siesta:      5.43849  10.87698 113.10458  1      154
siesta:      2.71925   8.15774 109.25899  1      155
siesta:      0.00000   5.43849 113.10458  1      156
siesta:      8.15774   8.15774 109.25899  1      157
siesta:     10.87698   5.43849 113.10458  1      158
siesta:      8.15774   2.71925 109.25899  1      159
siesta:      2.71925   2.71925 109.25899  1      160
siesta:      5.43849   5.43849 113.10458  1      161
siesta:      5.43849   0.00000 113.10458  1      162
siesta:      2.71925   8.15774 116.95017  1      163
siesta:      8.15774   8.15774 116.95017  1      164
siesta:      8.15774   2.71925 116.95017  1      165
siesta:      2.71925   2.71925 116.95017  1      166
siesta:      5.43849  10.87698 120.79577  1      167
siesta:      0.00000   5.43849 120.79577  1      168
siesta:     10.87698   5.43849 120.79577  1      169
siesta:      5.43849   5.43849 120.79577  1      170
siesta:      5.43849   0.00000 120.79577  1      171
siesta:      5.43849  10.87698 128.48695  1      172
siesta:      2.71925   8.15774 124.64136  1      173
siesta:      0.00000   5.43849 128.48695  1      174
siesta:      8.15774   8.15774 124.64136  1      175
siesta:     10.87698   5.43849 128.48695  1      176
siesta:      8.15774   2.71925 124.64136  1      177
siesta:      2.71925   2.71925 124.64136  1      178
siesta:      5.43849   5.43849 128.48695  1      179
siesta:      5.43849   0.00000 128.48695  1      180
siesta:      5.43849  10.87698 136.17814  1      181
siesta:      2.71925   8.15774 132.33255  1      182
siesta:      0.00000   5.43849 136.17814  1      183
siesta:      8.15774   8.15774 132.33255  1      184
siesta:     10.87698   5.43849 136.17814  1      185
siesta:      8.15774   2.71925 132.33255  1      186
siesta:      2.71925   2.71925 132.33255  1      187
siesta:      5.43849   5.43849 136.17814  1      188
siesta:      5.43849   0.00000 136.17814  1      189
siesta:      2.71925   8.15774 140.02374  1      190
siesta:      8.15774   8.15774 140.02374  1      191
siesta:      8.15774   2.71925 140.02374  1      192
siesta:      2.71925   2.71925 140.02374  1      193

siesta: System type = molecule  

initatomlists: Number of atoms, orbitals, and projectors:    193  1397  2010

coxmol: Writing XMOL coordinates into file em.xyz                                                              

siesta: ******************** Simulation parameters ****************************
siesta:
siesta: The following are some of the parameters of the simulation.
siesta: A complete list of the parameters used, including default values,
siesta: can be found in file out.fdf
siesta:
redata: Spin configuration                          = spin-orbit
redata: Number of spin components                   = 8
redata: Time-Reversal Symmetry                      = F
redata: Spin-spiral                                 = F
############################################################
#              Spin-orbit coupling is in beta              #
#           Several options may not be compatible          #
############################################################
redata: Long output                                 =   F
redata: Number of Atomic Species                    =        5
redata: Charge density info will appear in .RHO file
redata: Write Mulliken Pop.                         = Atomic and Orbital charges
redata: Mesh Cutoff                                 =   350.0000 Ry
redata: Net charge of the system                    =    -1.0000 |e|
redata: Min. number of SCF Iter                     =        0
redata: Max. number of SCF Iter                     =      300
redata: SCF mix quantity                            = Hamiltonian
redata: Mix DM or H after convergence               =   F
redata: Recompute H after scf cycle                 =   F
redata: Mix DM in first SCF step                    =   T
redata: Write Pulay info on disk                    =   F
redata: New DM Mixing Weight                        =     0.0300
redata: New DM Occupancy tolerance                  = 0.000000000001
redata: No kicks to SCF
redata: DM Mixing Weight for Kicks                  =     0.5000
redata: Require Harris convergence for SCF          =   F
redata: Harris energy tolerance for SCF             =     0.000100 eV
redata: Require DM convergence for SCF              =   T
redata: DM tolerance for SCF                        =     0.0001
redata: Require EDM convergence for SCF             =   F
redata: EDM tolerance for SCF                       =     0.001000 eV
redata: Require H convergence for SCF               =   T
redata: Hamiltonian tolerance for SCF               =     0.001000 eV
redata: Require (free) Energy convergence for SCF   =   F
redata: (free) Energy tolerance for SCF             =     0.000100 eV
redata: Using Saved Data (generic)                  =   F
redata: Use continuation files for DM               =   T
redata: Neglect nonoverlap interactions             =   F
redata: Method of Calculation                       = Diagonalization
redata: Divide and Conquer                          =   F
redata: Electronic Temperature                      =   299.9869 K
redata: Fix the spin of the system                  =   F
redata: Dynamics option                             = Single-point calculation
mix.SCF: Pulay mixing                            = Pulay
mix.SCF:    Variant                              = stable
mix.SCF:    History steps                        = 5
mix.SCF:    Linear mixing weight                 =     0.030000
mix.SCF:    Mixing weight                        =     0.030000
mix.SCF:    SVD condition                        = 0.1000E-07
mix.SCF: Spin-component mixing                   all
redata: ***********************************************************************

%block SCF.Mixers
  Pulay
%endblock SCF.Mixers

%block SCF.Mixer.Pulay
  # Mixing method
  method pulay
  variant stable

  # Mixing options
  weight 0.0300
  weight.linear 0.0300
  history 5
%endblock SCF.Mixer.Pulay

DM_history_depth set to one: no extrapolation allowed by default for geometry relaxation
Size of DM history Fstack: 1
Total number of electrons:  1538.000000
Total ionic charge:  1537.000000
madelung: WARNING: Charged system, but not SC, FCC or BCC cell.
madelung: WARNING: Energy correction terms can not be applied. 
madelung: WARNING: Continue only if you really know what you are doing.

Time-reversal symmetry not used.

siesta: k-grid: Number of k-points =    27
siesta: k-grid: Cutoff (effective) =    45.000 Ang
siesta: k-grid: Supercell and displacements
siesta: k-grid:    3   0   0      0.000
siesta: k-grid:    0   3   0      0.000
siesta: k-grid:    0   0   3      0.000


                     ====================================
                        Single-point calculation
                     ====================================

outcell: Unit cell vectors (Ang):
       30.000000    0.000000    0.000000
        0.000000   30.000000    0.000000
        0.000000    0.000000   86.471707

outcell: Cell vector modules (Ang)   :   30.000000   30.000000   86.471707
outcell: Cell angles (23,13,12) (deg):     90.0000     90.0000     90.0000
outcell: Cell volume (Ang**3)        :  77824.5362
<dSpData1D:S at geom step 0
  <sparsity:sparsity for geom step 0
    nrows_g=1397 nrows=1397 sparsity=.1647 nnzs=321397, refcount: 8>
  <dData1D:(new from dSpData1D) n=321397, refcount: 1>
refcount: 1>
new_DM -- step:     1
Initializing Density Matrix...

Attempting to read DM from file... Succeeded...
DM from file:
<dSpData2D:IO-DM: em.DM
  <sparsity:IO-DM: em.DM
    nrows_g=1397 nrows=1397 sparsity=.1647 nnzs=321397, refcount: 1>
  <dData2D:(new from dSpData2D) n=321397 m=8, refcount: 1>
refcount: 1>

initDM: Initial spin polarization (x,y,z) =   -0.001694    0.000408    0.498861

No. of atoms with KB's overlaping orbs in proc 0. Max # of overlaps:     193     194
New grid distribution:   1
           1       1:  180    1:  180    1:  500

InitMesh: MESH =   360 x   360 x  1000 =   129600000
InitMesh: (bp) =   180 x   180 x   500 =    16200000
InitMesh: Mesh cutoff (required, used) =   350.000   369.618 Ry
ExtMesh (bp) on 0 =   260 x   260 x   576 =    38937600
PhiOnMesh: Number of (b)points on node 0 =             16200000
PhiOnMesh: nlist on node 0 =             17916891

stepf: Fermi-Dirac step function

siesta: Program's energy decomposition (eV):
siesta: Ebs     =    -10053.562879
siesta: Eions   =    132744.839856
siesta: Ena     =      3513.404850
siesta: Ekin    =     84829.042978
siesta: Enl     =    -53194.502981
siesta: Eso     =       -16.051566
siesta: Eldau   =         0.000000
siesta: DEna    =        51.736975
siesta: DUscf   =        42.418180
siesta: DUext   =         0.000000
siesta: Exc     =    -19907.632850
siesta: eta*DQ  =         0.000000
siesta: Emadel  =         0.000000
siesta: Emeta   =         0.000000
siesta: Emolmec =         0.000000
siesta: Ekinion =         0.000000
siesta: Eharris =   -117426.424301
siesta: Etot    =   -117426.424270
siesta: FreeEng =   -117426.584528

        iscf     Eharris(eV)        E_KS(eV)     FreeEng(eV)     dDmax    Ef(eV) dHmax(eV)
   scf:    1  -117426.424301  -117426.424270  -117426.584528  0.000824 -2.283566  0.003574
timer: Routine,Calls,Time,% = IterSCF        1    5924.670  98.80
   scf:    2  -117426.406134  -117426.418236  -117426.578598  0.005021 -2.283241  0.260040
   scf:    3  -117426.424432  -117426.424269  -117426.584530  0.005013 -2.283560  0.004727
   scf:    4  -117426.424272  -117426.424271  -117426.584531  0.000094 -2.283556  0.002807
   scf:    5  -117426.424267  -117426.424269  -117426.584531  0.000039 -2.283554  0.002705
   scf:    6  -117426.424271  -117426.424270  -117426.584532  0.000035 -2.283551  0.002693
   scf:    7  -117426.424269  -117426.424270  -117426.584532  0.000036 -2.283549  0.002701
   scf:    8  -117426.424269  -117426.424269  -117426.584533  0.000098 -2.283544  0.002620
   scf:    9  -117426.424271  -117426.424270  -117426.584535  0.000113 -2.283541  0.002279
   scf:   10  -117426.424271  -117426.424271  -117426.584536  0.000090 -2.283538  0.002309
   scf:   11  -117426.424271  -117426.424271  -117426.584536  0.000012 -2.283539  0.002212
   scf:   12  -117426.424276  -117426.424273  -117426.584539  0.000314 -2.283532  0.002061
   scf:   13  -117426.424278  -117426.424275  -117426.584541  0.000348 -2.283529  0.001609
   scf:   14  -117426.424279  -117426.424277  -117426.584543  0.000241 -2.283528  0.001253
   scf:   15  -117426.424279  -117426.424277  -117426.584545  0.000353 -2.283525  0.000804
   scf:   16  -117426.424278  -117426.424278  -117426.584545  0.000210 -2.283524  0.000558
   scf:   17  -117426.424279  -117426.424278  -117426.584545  0.000142 -2.283527  0.000396
   scf:   18  -117426.424279  -117426.424279  -117426.584546  0.000064 -2.283530  0.000460

SCF Convergence by DM+H criterion
max |DM_out - DM_in|         :     0.0000641457
max |H_out - H_in|      (eV) :     0.0004600849
SCF cycle converged after 18 iterations

Using DM_out to compute the final energy and forces
No. of atoms with KB's overlaping orbs in proc 0. Max # of overlaps:     193     194

siesta: E_KS(eV) =          -117426.4243

siesta: E_KS - E_eggbox =   -117426.4243
siesta: Total spin polarization (x,y,z) =    -0.003042    0.000655    0.503826
siesta: S , {S} =     0.503836   -0.003042    0.000655    0.503826

siesta: Atomic forces (eV/Ang):
----------------------------------------
   Tot    0.017877   -0.020987   -0.006616
----------------------------------------
   Max    2.952518
   Res    0.502267    sqrt( Sum f_i^2 / 3N )
----------------------------------------
   Max    2.952518    constrained

Stress-tensor-Voigt (kbar):        0.80        0.80        1.86        0.03       -0.04        0.01
(Free)E + p*V (eV/cell)  -117482.5498
Target enthalpy (eV/cell)  -117426.5845

moments: Atomic and Orbital Populations and Magnetic Moments:

Species: Au                  

Atom    Orb           Charge    sqrt(<S>^2)        <(Sx,Sy,Sz)>     sqrt(<L>^2)      <(Lx,Ly,Lz)>
----------------------------------------------------------------------------------------------------
   1    1  6s         1.3193                  -0.000 -0.000  0.000               0.000  0.000  0.000
   1    2  5dxy       1.9576                   0.000  0.000 -0.000               0.000  0.000  0.000
   1    3  5dyz       1.9340                  -0.000  0.001  0.000              -0.000  0.000  0.000
   1    4  5dz2       1.9677                  -0.000 -0.000  0.000              -0.000 -0.000  0.000
   1    5  5dxz       1.9343                   0.001 -0.000  0.000               0.000 -0.000  0.000
   1    6  5dx2-y2    1.9159                  -0.001 -0.001  0.000              -0.000 -0.000  0.000
----------------------------------------------------------------------------------------------------
   1      Total      11.0288         0.001    -0.000 -0.000  0.000       0.000  -0.000 -0.000  0.000

   2    7  6s         1.3222                   0.000 -0.000  0.000               0.000  0.000  0.000
   2    8  5dxy       1.9573                  -0.000  0.000  0.000              -0.000  0.000  0.000
   2    9  5dyz       1.9339                   0.000  0.001  0.000               0.000  0.000 -0.000
   2   10  5dz2       1.9677                   0.000 -0.000  0.000               0.000 -0.000  0.000
   2   11  5dxz       1.9339                  -0.001 -0.000 -0.000              -0.000 -0.000 -0.000
   2   12  5dx2-y2    1.9152                   0.001 -0.001  0.000               0.000 -0.000  0.000
----------------------------------------------------------------------------------------------------
   2      Total      11.0303         0.000     0.000 -0.000  0.000       0.000  -0.000 -0.000  0.000

   3   13  6s         1.3207                   0.000  0.000  0.000               0.000  0.000  0.000
   3   14  5dxy       1.9573                  -0.000 -0.000  0.000              -0.000 -0.000  0.000
   3   15  5dyz       1.9340                   0.000 -0.001 -0.000               0.000 -0.000 -0.000
   3   16  5dz2       1.9677                   0.000  0.000  0.000               0.000  0.000  0.000
   3   17  5dxz       1.9340                  -0.001  0.000 -0.000              -0.000  0.000 -0.000
   3   18  5dx2-y2    1.9157                   0.001  0.001  0.000               0.000  0.000  0.000
----------------------------------------------------------------------------------------------------
   3      Total      11.0295         0.000     0.000  0.000  0.000       0.000   0.000  0.000  0.000

   4   19  6s         1.3210                  -0.000  0.000  0.000               0.000  0.000  0.000
   4   20  5dxy       1.9575                   0.000 -0.000  0.000               0.000 -0.000  0.000
   4   21  5dyz       1.9339                  -0.000 -0.001  0.000              -0.000 -0.000 -0.000
   4   22  5dz2       1.9676                  -0.000  0.000  0.000              -0.000  0.000  0.000
   4   23  5dxz       1.9342                   0.001  0.000  0.000               0.000  0.000 -0.000
   4   24  5dx2-y2    1.9154                  -0.001  0.001  0.000              -0.000  0.000  0.000
----------------------------------------------------------------------------------------------------
   4      Total      11.0296         0.001    -0.000  0.000  0.000       0.000  -0.000 -0.000  0.000

   5   25  6s         1.3569                   0.000 -0.000  0.000               0.000  0.000  0.000
   5   26  5dxy       1.9619                  -0.000  0.000  0.000              -0.000 -0.000  0.000
   5   27  5dyz       1.9670                   0.000 -0.000  0.000              -0.000 -0.000  0.000
   5   28  5dz2       1.9635                   0.000 -0.000  0.000              -0.000  0.000  0.000
   5   29  5dxz       1.8598                  -0.000 -0.000  0.000              -0.000  0.000  0.000
   5   30  5dx2-y2    1.9418                   0.000  0.000 -0.000              -0.000  0.000  0.000
----------------------------------------------------------------------------------------------------
   5      Total      11.0510         0.000    -0.000 -0.000  0.000       0.000  -0.000 -0.000  0.000

   6   31  6s         1.1374                   0.000  0.000  0.000               0.000  0.000  0.000
   6   32  5dxy       1.9457                  -0.000 -0.000  0.000              -0.000 -0.000  0.000
   6   33  5dyz       1.9255                  -0.000 -0.000  0.000              -0.000 -0.000  0.000
   6   34  5dz2       1.9484                   0.000  0.000  0.000              -0.000 -0.000  0.000
   6   35  5dxz       1.9243                  -0.000 -0.000  0.000              -0.000 -0.000  0.000
   6   36  5dx2-y2    1.9601                   0.000 -0.000 -0.000              -0.000 -0.000  0.000
----------------------------------------------------------------------------------------------------
   6      Total      10.8414         0.000    -0.000 -0.000  0.000       0.000  -0.000 -0.000  0.000

   7   37  6s         1.3056                   0.000  0.000  0.000               0.000  0.000  0.000
   7   38  5dxy       1.9347                   0.000  0.000  0.000              -0.000 -0.000  0.000
   7   39  5dyz       1.9052                  -0.000  0.000 -0.000               0.000 -0.000 -0.000
   7   40  5dz2       1.9706                   0.000  0.000 -0.000               0.000  0.000  0.000
   7   41  5dxz       1.9052                   0.000 -0.000 -0.000              -0.000  0.000 -0.000
   7   42  5dx2-y2    1.9465                  -0.000 -0.000  0.000              -0.000  0.000  0.000
----------------------------------------------------------------------------------------------------
   7      Total      10.9677         0.000     0.000  0.000 -0.000       0.000   0.000  0.000  0.000

   8   43  6s         1.3060                  -0.000  0.000  0.000               0.000  0.000  0.000
   8   44  5dxy       1.9347                  -0.000  0.000 -0.000              -0.000  0.000  0.000
   8   45  5dyz       1.9052                   0.000  0.000 -0.000              -0.000  0.000  0.000
   8   46  5dz2       1.9704                  -0.000  0.000  0.000              -0.000  0.000  0.000
   8   47  5dxz       1.9051                  -0.000 -0.000  0.000              -0.000  0.000  0.000
   8   48  5dx2-y2    1.9465                   0.000 -0.000  0.000              -0.000 -0.000  0.000
----------------------------------------------------------------------------------------------------
   8      Total      10.9680         0.000    -0.000  0.000  0.000       0.000  -0.000  0.000  0.000

   9   49  6s         1.3562                   0.000 -0.000 -0.000               0.000  0.000  0.000
   9   50  5dxy       1.9619                  -0.000 -0.000  0.000               0.000 -0.000  0.000
   9   51  5dyz       1.8604                   0.000 -0.000 -0.000               0.000 -0.000  0.000
   9   52  5dz2       1.9636                   0.000  0.000 -0.000              -0.000 -0.000  0.000
   9   53  5dxz       1.9669                   0.000  0.000  0.000               0.000 -0.000  0.000
   9   54  5dx2-y2    1.9418                  -0.000 -0.000 -0.000               0.000 -0.000  0.000
----------------------------------------------------------------------------------------------------
   9      Total      11.0509         0.000     0.000 -0.000 -0.000       0.000   0.000 -0.000  0.000

  10   55  6s         1.3051                  -0.000 -0.000  0.000               0.000  0.000  0.000
  10   56  5dxy       1.9348                  -0.000 -0.000 -0.000              -0.000 -0.000 -0.000
  10   57  5dyz       1.9053                   0.000 -0.000  0.000              -0.000 -0.000  0.000
  10   58  5dz2       1.9704                  -0.000 -0.000  0.000              -0.000 -0.000  0.000
  10   59  5dxz       1.9053                  -0.000  0.000  0.000              -0.000 -0.000  0.000
  10   60  5dx2-y2    1.9466                   0.000  0.000  0.000              -0.000 -0.000 -0.000
----------------------------------------------------------------------------------------------------
  10      Total      10.9675         0.000    -0.000 -0.000  0.000       0.000  -0.000 -0.000  0.000

  11   61  6s         1.3562                  -0.000 -0.000  0.000               0.000  0.000  0.000
  11   62  5dxy       1.9620                   0.000 -0.000  0.000              -0.000 -0.000  0.000
  11   63  5dyz       1.8607                  -0.000 -0.000  0.000              -0.000 -0.000  0.000
  11   64  5dz2       1.9635                  -0.000  0.000  0.000              -0.000 -0.000  0.000
  11   65  5dxz       1.9665                  -0.000  0.000  0.000              -0.000 -0.000  0.000
  11   66  5dx2-y2    1.9419                   0.000  0.000 -0.000               0.000 -0.000  0.000
----------------------------------------------------------------------------------------------------
  11      Total      11.0508         0.000    -0.000 -0.000  0.000       0.000  -0.000 -0.000  0.000

  12   67  6s         1.3064                   0.000 -0.000  0.000               0.000  0.000  0.000
  12   68  5dxy       1.9346                   0.000 -0.000 -0.000              -0.000 -0.000  0.000
  12   69  5dyz       1.9051                  -0.000 -0.000  0.000               0.000 -0.000  0.000
  12   70  5dz2       1.9706                   0.000 -0.000 -0.000               0.000 -0.000  0.000
  12   71  5dxz       1.9051                   0.000  0.000 -0.000              -0.000 -0.000  0.000
  12   72  5dx2-y2    1.9465                  -0.000  0.000  0.000              -0.000 -0.000  0.000
----------------------------------------------------------------------------------------------------
  12      Total      10.9683         0.000     0.000 -0.000  0.000       0.000   0.000 -0.000  0.000

  13   73  6s         1.3565                   0.000  0.000 -0.000               0.000  0.000  0.000
  13   74  5dxy       1.9619                  -0.000 -0.000  0.000              -0.000  0.000  0.000
  13   75  5dyz       1.9671                   0.000  0.000  0.000              -0.000  0.000  0.000
  13   76  5dz2       1.9636                   0.000  0.000 -0.000              -0.000 -0.000  0.000
  13   77  5dxz       1.8598                  -0.000  0.000  0.000              -0.000 -0.000  0.000
  13   78  5dx2-y2    1.9418                   0.000 -0.000  0.000              -0.000  0.000  0.000
----------------------------------------------------------------------------------------------------
  13      Total      11.0508         0.000    -0.000  0.000 -0.000       0.000  -0.000  0.000  0.000

  14   79  6s         1.3619                  -0.000  0.000  0.000               0.000  0.000  0.000
  14   80  5dxy       1.9659                  -0.000  0.000  0.000              -0.000  0.000  0.000
  14   81  5dyz       1.9522                   0.000 -0.000 -0.000              -0.000  0.000 -0.000
  14   82  5dz2       1.9692                   0.000  0.000  0.000              -0.000  0.000  0.000
  14   83  5dxz       1.8631                  -0.000 -0.000  0.000              -0.000  0.000 -0.000
  14   84  5dx2-y2    1.9424                   0.000 -0.000  0.000               0.000 -0.000  0.000
----------------------------------------------------------------------------------------------------
  14      Total      11.0548         0.000    -0.000  0.000  0.000       0.000  -0.000  0.000  0.000

  15   85  6s         1.1431                   0.000  0.000 -0.000               0.000  0.000  0.000
  15   86  5dxy       1.9617                  -0.000 -0.000  0.000              -0.000  0.000  0.000
  15   87  5dyz       1.9307                  -0.000 -0.000  0.000              -0.000  0.000  0.000
  15   88  5dz2       1.9557                  -0.000  0.000  0.000              -0.000 -0.000  0.000
  15   89  5dxz       1.9300                  -0.000 -0.000  0.000              -0.000 -0.000  0.000
  15   90  5dx2-y2    1.9610                   0.000  0.000 -0.000              -0.000  0.000  0.000
----------------------------------------------------------------------------------------------------
  15      Total      10.8822         0.000    -0.000 -0.000  0.000       0.000  -0.000 -0.000  0.000

  16   91  6s         1.3186                   0.000  0.000 -0.000               0.000  0.000  0.000
  16   92  5dxy       1.9353                  -0.000 -0.000  0.000              -0.000 -0.000  0.000
  16   93  5dyz       1.9059                   0.000  0.000 -0.000               0.000 -0.000 -0.000
  16   94  5dz2       1.9742                  -0.000 -0.000 -0.000               0.000  0.000  0.000
  16   95  5dxz       1.9059                   0.000  0.000 -0.000              -0.000  0.000 -0.000
  16   96  5dx2-y2    1.9440                  -0.000 -0.000  0.000               0.000  0.000  0.000
----------------------------------------------------------------------------------------------------
  16      Total      10.9838         0.000     0.000  0.000 -0.000       0.000   0.000  0.000  0.000

  17   97  6s         1.3166                  -0.000  0.000  0.000               0.000  0.000  0.000
  17   98  5dxy       1.9356                   0.000 -0.000  0.000               0.000 -0.000  0.000
  17   99  5dyz       1.9062                  -0.000  0.000 -0.000              -0.000 -0.000  0.000
  17  100  5dz2       1.9739                   0.000 -0.000  0.000              -0.000  0.000  0.000
  17  101  5dxz       1.9061                  -0.000  0.000  0.000               0.000  0.000  0.000
  17  102  5dx2-y2    1.9441                   0.000 -0.000  0.000              -0.000 -0.000  0.000
----------------------------------------------------------------------------------------------------
  17      Total      10.9826         0.000    -0.000  0.000  0.000       0.000  -0.000  0.000  0.000

  18  103  6s         1.3623                  -0.000  0.000  0.000               0.000  0.000  0.000
  18  104  5dxy       1.9660                  -0.000 -0.000  0.000              -0.000 -0.000  0.000
  18  105  5dyz       1.8638                   0.000 -0.000  0.000              -0.000 -0.000  0.000
  18  106  5dz2       1.9692                  -0.000  0.000 -0.000              -0.000  0.000  0.000
  18  107  5dxz       1.9512                   0.000  0.000  0.000              -0.000  0.000  0.000
  18  108  5dx2-y2    1.9426                   0.000  0.000  0.000               0.000  0.000  0.000
----------------------------------------------------------------------------------------------------
  18      Total      11.0551         0.000    -0.000 -0.000  0.000       0.000  -0.000 -0.000  0.000

  19  109  6s         1.3158                  -0.000 -0.000  0.000               0.000  0.000  0.000
  19  110  5dxy       1.9357                   0.000  0.000 -0.000               0.000  0.000 -0.000
  19  111  5dyz       1.9063                  -0.000 -0.000  0.000              -0.000  0.000  0.000
  19  112  5dz2       1.9739                   0.000  0.000  0.000              -0.000 -0.000  0.000
  19  113  5dxz       1.9062                  -0.000 -0.000  0.000               0.000 -0.000  0.000
  19  114  5dx2-y2    1.9442                   0.000  0.000  0.000              -0.000 -0.000 -0.000
----------------------------------------------------------------------------------------------------
  19      Total      10.9820         0.000    -0.000 -0.000  0.000       0.000  -0.000 -0.000  0.000

  20  115  6s         1.3612                   0.000  0.000  0.000               0.000  0.000  0.000
  20  116  5dxy       1.9659                   0.000 -0.000  0.000               0.000 -0.000 -0.000
  20  117  5dyz       1.8632                  -0.000 -0.000 -0.000               0.000 -0.000 -0.000
  20  118  5dz2       1.9692                   0.000  0.000  0.000               0.000 -0.000  0.000
  20  119  5dxz       1.9527                  -0.000  0.000 -0.000               0.000 -0.000 -0.000
  20  120  5dx2-y2    1.9423                  -0.000  0.000 -0.000              -0.000 -0.000 -0.000
----------------------------------------------------------------------------------------------------
  20      Total      11.0546         0.000     0.000 -0.000 -0.000       0.000   0.000 -0.000 -0.000

  21  121  6s         1.3191                   0.000 -0.000 -0.000               0.000  0.000  0.000
  21  122  5dxy       1.9353                  -0.000  0.000  0.000              -0.000  0.000  0.000
  21  123  5dyz       1.9058                   0.000 -0.000  0.000               0.000  0.000 -0.000
  21  124  5dz2       1.9741                  -0.000  0.000  0.000               0.000 -0.000  0.000
  21  125  5dxz       1.9058                   0.000 -0.000 -0.000              -0.000 -0.000 -0.000
  21  126  5dx2-y2    1.9440                  -0.000  0.000  0.000              -0.000 -0.000  0.000
----------------------------------------------------------------------------------------------------
  21      Total      10.9841         0.000     0.000 -0.000  0.000       0.000   0.000 -0.000  0.000

  22  127  6s         1.3619                  -0.000 -0.000  0.000               0.000  0.000  0.000
  22  128  5dxy       1.9659                  -0.000 -0.000  0.000              -0.000 -0.000  0.000
  22  129  5dyz       1.9521                   0.000  0.000  0.000               0.000 -0.000  0.000
  22  130  5dz2       1.9692                  -0.000 -0.000 -0.000               0.000 -0.000  0.000
  22  131  5dxz       1.8632                  -0.000  0.000  0.000              -0.000 -0.000  0.000
  22  132  5dx2-y2    1.9424                   0.000  0.000  0.000               0.000  0.000  0.000
----------------------------------------------------------------------------------------------------
  22      Total      11.0547         0.000    -0.000 -0.000  0.000       0.000  -0.000 -0.000  0.000

  23  133  6s         1.3703                   0.000  0.000 -0.000               0.000  0.000  0.000
  23  134  5dxy       1.9629                  -0.000  0.000 -0.000              -0.000  0.000  0.000
  23  135  5dyz       1.9610                   0.000  0.000  0.000              -0.000  0.000  0.000
  23  136  5dz2       1.9673                   0.000 -0.000 -0.000              -0.000  0.000  0.000
  23  137  5dxz       1.8599                  -0.000 -0.000  0.000              -0.000  0.000  0.000
  23  138  5dx2-y2    1.9396                   0.000 -0.000 -0.000               0.000 -0.000  0.000
----------------------------------------------------------------------------------------------------
  23      Total      11.0609         0.000    -0.000  0.000 -0.000       0.000  -0.000  0.000  0.000

  24  139  6s         1.1384                  -0.000 -0.000  0.000               0.000  0.000  0.000
  24  140  5dxy       1.9569                  -0.000  0.000 -0.000              -0.000 -0.000  0.000
  24  141  5dyz       1.9284                  -0.000 -0.000  0.000               0.000 -0.000  0.000
  24  142  5dz2       1.9496                   0.000 -0.000 -0.000               0.000  0.000  0.000
  24  143  5dxz       1.9280                  -0.000 -0.000  0.000              -0.000  0.000  0.000
  24  144  5dx2-y2    1.9695                  -0.000 -0.000 -0.000               0.000  0.000  0.000
----------------------------------------------------------------------------------------------------
  24      Total      10.8708         0.000    -0.000 -0.000  0.000       0.000   0.000  0.000  0.000

  25  145  6s         1.3714                  -0.000 -0.000 -0.000               0.000  0.000  0.000
  25  146  5dxy       1.9629                  -0.000 -0.000 -0.000              -0.000 -0.000  0.000
  25  147  5dyz       1.8602                   0.000 -0.000  0.000              -0.000 -0.000  0.000
  25  148  5dz2       1.9674                   0.000 -0.000 -0.000              -0.000  0.000  0.000
  25  149  5dxz       1.9601                  -0.000  0.000  0.000              -0.000  0.000  0.000
  25  150  5dx2-y2    1.9397                   0.000 -0.000  0.000               0.000  0.000  0.000
----------------------------------------------------------------------------------------------------
  25      Total      11.0616         0.000    -0.000 -0.000  0.000       0.000  -0.000  0.000  0.000

  26  151  6s         1.3696                   0.000 -0.000 -0.000               0.000  0.000  0.000
  26  152  5dxy       1.9628                   0.000  0.000 -0.000               0.000 -0.000 -0.000
  26  153  5dyz       1.8600                  -0.000 -0.000  0.000               0.000 -0.000 -0.000
  26  154  5dz2       1.9673                  -0.000 -0.000 -0.000               0.000 -0.000  0.000
  26  155  5dxz       1.9614                   0.000  0.000 -0.000               0.000 -0.000 -0.000
  26  156  5dx2-y2    1.9395                  -0.000  0.000 -0.000               0.000  0.000 -0.000
----------------------------------------------------------------------------------------------------
  26      Total      11.0606         0.000     0.000 -0.000 -0.000       0.000   0.000 -0.000 -0.000

  27  157  6s         1.3713                   0.000 -0.000 -0.000               0.000  0.000  0.000
  27  158  5dxy       1.9628                  -0.000 -0.000 -0.000              -0.000 -0.000  0.000
  27  159  5dyz       1.9606                   0.000 -0.000  0.000               0.000 -0.000  0.000
  27  160  5dz2       1.9673                   0.000  0.000 -0.000               0.000 -0.000  0.000
  27  161  5dxz       1.8598                  -0.000  0.000  0.000              -0.000 -0.000  0.000
  27  162  5dx2-y2    1.9396                  -0.000  0.000 -0.000               0.000  0.000  0.000
----------------------------------------------------------------------------------------------------
  27      Total      11.0614         0.000     0.000 -0.000  0.000       0.000  -0.000 -0.000  0.000

  28  163  6s         1.2953                  -0.000 -0.000  0.000               0.000  0.000  0.000
  28  164  5dxy       1.9339                   0.000  0.000 -0.000               0.000  0.000 -0.000
  28  165  5dyz       1.9128                  -0.000 -0.000  0.000              -0.000  0.000  0.000
  28  166  5dz2       1.9723                   0.000  0.000 -0.000              -0.000 -0.000  0.000
  28  167  5dxz       1.9127                  -0.000 -0.000  0.000               0.000  0.000  0.000
  28  168  5dx2-y2    1.9438                   0.000  0.000 -0.000               0.000  0.000 -0.000
----------------------------------------------------------------------------------------------------
  28      Total      10.9708         0.000    -0.000 -0.000  0.000       0.000  -0.000  0.000 -0.000

  29  169  6s         1.2959                   0.000 -0.000 -0.000               0.000  0.000  0.000
  29  170  5dxy       1.9338                  -0.000  0.000 -0.000              -0.000  0.000 -0.000
  29  171  5dyz       1.9127                   0.000 -0.000  0.000              -0.000  0.000 -0.000
  29  172  5dz2       1.9723                  -0.000  0.000 -0.000               0.000 -0.000  0.000
  29  173  5dxz       1.9127                   0.000 -0.000 -0.000              -0.000 -0.000 -0.000
  29  174  5dx2-y2    1.9437                  -0.000  0.000  0.000              -0.000 -0.000 -0.000
----------------------------------------------------------------------------------------------------
  29      Total      10.9710         0.000     0.000 -0.000 -0.000       0.000  -0.000 -0.000 -0.000

  30  175  6s         1.2947                   0.000  0.000 -0.000               0.000  0.000  0.000
  30  176  5dxy       1.9338                  -0.000 -0.000 -0.000              -0.000  0.000 -0.000
  30  177  5dyz       1.9127                   0.000  0.000  0.000              -0.000  0.000 -0.000
  30  178  5dz2       1.9722                  -0.000 -0.000 -0.000              -0.000  0.000  0.000
  30  179  5dxz       1.9128                   0.000  0.000 -0.000              -0.000  0.000 -0.000
  30  180  5dx2-y2    1.9438                  -0.000 -0.000  0.000              -0.000  0.000 -0.000
----------------------------------------------------------------------------------------------------
  30      Total      10.9702         0.000     0.000  0.000 -0.000       0.000  -0.000  0.000 -0.000

  31  181  6s         1.2952                  -0.000  0.000 -0.000               0.000  0.000  0.000
  31  182  5dxy       1.9339                   0.000 -0.000 -0.000               0.000 -0.000 -0.000
  31  183  5dyz       1.9127                  -0.000  0.000 -0.000              -0.000 -0.000 -0.000
  31  184  5dz2       1.9722                   0.000 -0.000 -0.000              -0.000  0.000  0.000
  31  185  5dxz       1.9128                  -0.000  0.000  0.000               0.000  0.000 -0.000
  31  186  5dx2-y2    1.9438                   0.000 -0.000  0.000               0.000 -0.000 -0.000
----------------------------------------------------------------------------------------------------
  31      Total      10.9706         0.000    -0.000  0.000 -0.000       0.000  -0.000 -0.000 -0.000

  32  187  6s         1.3853                   0.000  0.000  0.000               0.000  0.000  0.000
  32  188  5dxy       1.9633                  -0.000 -0.000 -0.000              -0.000 -0.000  0.000
  32  189  5dyz       1.9499                   0.000 -0.000 -0.000               0.000 -0.000  0.000
  32  190  5dz2       1.9686                   0.000 -0.000  0.000              -0.000 -0.000  0.000
  32  191  5dxz       1.8602                  -0.000  0.000  0.000              -0.000 -0.000  0.000
  32  192  5dx2-y2    1.9405                  -0.000  0.000 -0.000               0.000  0.000  0.000
----------------------------------------------------------------------------------------------------
  32      Total      11.0677         0.000     0.000  0.000  0.000       0.000  -0.000 -0.000  0.000

  33  193  6s         1.1419                  -0.000 -0.000  0.000               0.000  0.000  0.000
  33  194  5dxy       1.9571                   0.000  0.000  0.000               0.000 -0.000  0.000
  33  195  5dyz       1.9276                  -0.000 -0.000  0.000               0.000 -0.000  0.000
  33  196  5dz2       1.9540                   0.000  0.000 -0.000               0.000  0.000  0.000
  33  197  5dxz       1.9275                  -0.000  0.000  0.000               0.000  0.000  0.000
  33  198  5dx2-y2    1.9703                   0.000 -0.000 -0.000              -0.000  0.000  0.000
----------------------------------------------------------------------------------------------------
  33      Total      10.8783         0.000    -0.000 -0.000  0.000       0.000   0.000  0.000  0.000

  34  199  6s         1.3094                   0.000  0.000  0.000               0.000  0.000  0.000
  34  200  5dxy       1.9350                   0.000 -0.000 -0.000               0.000  0.000 -0.000
  34  201  5dyz       1.9074                   0.000 -0.000  0.000              -0.000  0.000  0.000
  34  202  5dz2       1.9722                   0.000  0.000  0.000              -0.000 -0.000  0.000
  34  203  5dxz       1.9073                  -0.000  0.000  0.000               0.000  0.000  0.000
  34  204  5dx2-y2    1.9444                   0.000  0.000 -0.000              -0.000  0.000 -0.000
----------------------------------------------------------------------------------------------------
  34      Total      10.9756         0.000     0.000  0.000  0.000       0.000  -0.000  0.000 -0.000

  35  205  6s         1.3130                  -0.000  0.000 -0.000               0.000  0.000  0.000
  35  206  5dxy       1.9345                   0.000 -0.000 -0.000              -0.000  0.000 -0.000
[...]
 131 1000  2s         0.4134                  -0.000 -0.000  0.004               0.000  0.000  0.000
 131 1001  2py        1.5163                  -0.003 -0.001  0.071              -0.000  0.000  0.002
 131 1002  2pz        1.4640                  -0.001 -0.001  0.010              -0.000  0.001  0.000
 131 1003  2px        1.2129                   0.000 -0.000  0.023               0.000  0.001  0.002
 131 1004  2py        0.0185                  -0.000 -0.000  0.005              -0.000  0.000 -0.000
 131 1005  2pz        0.0375                  -0.000 -0.000  0.003              -0.000  0.000  0.000
 131 1006  2px        0.1354                  -0.000 -0.000  0.004               0.000  0.000 -0.000
 131 1007  2Pdxy      0.0067                   0.000  0.000 -0.000              -0.000  0.000  0.000
 131 1008  2Pdyz      0.0025                  -0.000 -0.000  0.000              -0.000  0.000  0.000
 131 1009  2Pdz2      0.0058                   0.000  0.000 -0.000               0.000  0.000  0.000
 131 1010  2Pdxz      0.0100                  -0.000 -0.000 -0.000              -0.000  0.000  0.000
 131 1011  2Pdx2-y    0.0078                   0.000  0.000 -0.000              -0.000  0.000  0.000
----------------------------------------------------------------------------------------------------
 131      Total       5.9625         0.118    -0.004 -0.003  0.118       0.008  -0.002  0.004  0.007

 132 1012  2s         1.1175                  -0.000 -0.000 -0.002               0.000  0.000  0.000
 132 1013  2s         0.4215                   0.000  0.000  0.004               0.000  0.000  0.000
 132 1014  2py        1.4228                   0.001  0.002  0.028              -0.001  0.000  0.002
 132 1015  2pz        1.4996                   0.002 -0.000  0.046              -0.001  0.001  0.000
 132 1016  2px        1.2749                   0.000  0.001  0.056               0.000  0.001  0.002
 132 1017  2py        0.0631                   0.000  0.000  0.004               0.000  0.000 -0.000
 132 1018  2pz        0.0137                   0.000  0.000  0.004               0.000 -0.000  0.000
 132 1019  2px        0.1049                   0.000  0.000  0.005               0.000 -0.000 -0.000
 132 1020  2Pdxy      0.0100                   0.000  0.000  0.000              -0.000  0.000  0.000
 132 1021  2Pdyz      0.0047                   0.000  0.000  0.000              -0.000  0.000  0.000
 132 1022  2Pdz2      0.0033                   0.000  0.000 -0.000              -0.000  0.000  0.000
 132 1023  2Pdxz      0.0059                  -0.000  0.000 -0.000              -0.000  0.000  0.000
 132 1024  2Pdx2-y    0.0088                  -0.000 -0.000 -0.000               0.000  0.000  0.000
----------------------------------------------------------------------------------------------------
 132      Total       5.9506         0.145     0.004  0.003  0.145       0.008  -0.002  0.005  0.006

 133 1025  2s         1.2737                  -0.000  0.000  0.000               0.000  0.000  0.000
 133 1026  2s         0.3380                   0.000 -0.000 -0.000               0.000  0.000  0.000
 133 1027  2py        1.6451                  -0.000 -0.001 -0.001               0.000  0.000  0.000
 133 1028  2pz        1.1032                  -0.001  0.000 -0.001               0.000 -0.000  0.000
 133 1029  2px        1.5295                   0.001  0.001 -0.004               0.000 -0.000  0.000
 133 1030  2py       -0.0256                   0.000  0.000 -0.000              -0.000  0.000 -0.000
 133 1031  2pz        0.1362                   0.001 -0.000  0.000              -0.000  0.000  0.000
 133 1032  2px       -0.0167                  -0.001 -0.000  0.000               0.000  0.000 -0.000
 133 1033  2Pdxy      0.0028                  -0.000  0.000  0.000              -0.000  0.000 -0.000
 133 1034  2Pdyz      0.0089                   0.000  0.000  0.000               0.000  0.000 -0.000
 133 1035  2Pdz2      0.0108                  -0.000  0.000 -0.000               0.000 -0.000  0.000
 133 1036  2Pdxz      0.0078                  -0.000 -0.000  0.000              -0.000 -0.000 -0.000
 133 1037  2Pdx2-y    0.0040                  -0.000 -0.000  0.000              -0.000 -0.000 -0.000
----------------------------------------------------------------------------------------------------
 133      Total       6.0178         0.007    -0.000  0.000 -0.007       0.001   0.000 -0.000  0.001

----------------------------------------------------------------------------------------------------
 Sum               1538.0000         0.252    -0.002  0.000  0.252       0.014  -0.008  0.009  0.009


coxmol: Writing XMOL coordinates into file em.xyz                                                              

siesta: Program's energy decomposition (eV):
siesta: Ebs     =    -10053.493129
siesta: Eions   =    132744.839856
siesta: Ena     =      3513.404850
siesta: Ekin    =     84829.025709
siesta: Enl     =    -53194.489394
siesta: Eso     =       -16.051639
siesta: Eldau   =         0.000000
siesta: DEna    =        51.739728
siesta: DUscf   =        42.417155
siesta: DUext   =         0.000000
siesta: Exc     =    -19907.630832
siesta: eta*DQ  =         0.000000
siesta: Emadel  =         0.000000
siesta: Emeta   =         0.000000
siesta: Emolmec =         0.000000
siesta: Ekinion =         0.000000
siesta: Eharris =   -117426.424279
siesta: Etot    =   -117426.424279
siesta: FreeEng =   -117426.584546

siesta: Final energy (eV):
siesta:  Band Struct. =  -10053.493129
siesta:       Kinetic =   84829.025709
siesta:       Hartree =  544667.959482
siesta:       Eldau   =       0.000000
siesta:       Eso     =     -16.051639
siesta:    Ext. field =       0.000000
siesta:   Exch.-corr. =  -19907.630832
siesta:  Ion-electron =-1158146.017802
siesta:       Ion-ion =  431146.290803
siesta:       Ekinion =       0.000000
siesta:         Total = -117426.424279
siesta:         Fermi =      -2.283530

siesta: Atomic forces (eV/Ang):
siesta:      1    0.262242    0.255653    0.250166
siesta:      2   -0.260304    0.256514    0.236787
siesta:      3   -0.261397   -0.259028    0.242895
siesta:      4    0.259102   -0.253982    0.245921
siesta:      5   -0.000947    0.604938    0.348876
siesta:      6    0.003914    0.002584   -0.701680
siesta:      7   -0.642269   -0.642808   -0.011182
siesta:      8    0.642162   -0.647823   -0.013862
siesta:      9   -0.603573   -0.000263    0.349862
siesta:     10    0.638104    0.644775   -0.014509
siesta:     11    0.599509   -0.001751    0.338592
siesta:     12   -0.643681    0.645212   -0.010317
siesta:     13    0.000578   -0.607949    0.348464
siesta:     14    0.000956    0.952145   -0.070414
siesta:     15    0.000019    0.004630    0.035697
siesta:     16   -0.573145   -0.572192    0.023536
siesta:     17    0.568253   -0.574691    0.024424
siesta:     18   -0.944229    0.000227   -0.069067
siesta:     19    0.567189    0.571552    0.025124
siesta:     20    0.953911   -0.000696   -0.078379
siesta:     21   -0.575203    0.572143    0.022802
siesta:     22    0.001915   -0.952548   -0.067836
siesta:     23    0.001264    0.870545   -0.040198
siesta:     24    0.001860    0.005006    0.014211
siesta:     25   -0.861260    0.002102   -0.051116
siesta:     26    0.871906   -0.000204   -0.036743
siesta:     27    0.003564   -0.865916   -0.038732
siesta:     28   -0.528588   -0.529425   -0.012670
siesta:     29    0.530270   -0.531599   -0.003736
siesta:     30    0.527399    0.528782   -0.003944
siesta:     31   -0.529219    0.530170   -0.008376
siesta:     32   -0.002734    0.825311    0.071275
siesta:     33    0.009043    0.005869   -0.025161
siesta:     34   -0.592688   -0.595855   -0.027280
siesta:     35    0.605302   -0.592901   -0.021594
siesta:     36   -0.831610    0.000337    0.049493
siesta:     37    0.601802    0.596193   -0.019968
siesta:     38    0.822636    0.000798    0.072792
siesta:     39   -0.591049    0.601064   -0.024450
siesta:     40   -0.003271   -0.827778    0.061511
siesta:     41   -0.005929    0.965741    0.032106
siesta:     42    0.010078    0.005530    0.071097
siesta:     43   -0.550671   -0.548860   -0.010366
siesta:     44    0.539948   -0.534137   -0.023647
siesta:     45   -0.986626   -0.004719    0.028689
siesta:     46    0.540242    0.536744   -0.025847
siesta:     47    0.960581   -0.003829    0.020261
siesta:     48   -0.546201    0.546434   -0.010785
siesta:     49   -0.006725   -0.976967    0.026798
siesta:     50    0.020920    0.503950   -0.245012
siesta:     51   -0.014586    0.003204    0.408622
siesta:     52   -0.504403    0.002807   -0.191793
siesta:     53    0.522179    0.013866   -0.272226
siesta:     54    0.009345   -0.511968   -0.207392
siesta:     55    0.268125    0.305534   -0.007334
siesta:     56   -0.202771    0.196874   -0.222781
siesta:     57   -0.191337   -0.187527   -0.238470
siesta:     58    0.224454   -0.256635   -0.154936
siesta:     59    0.561915    0.165642    0.531761
siesta:     60    0.098685    0.454325   -0.106253
siesta:     61    0.905198   -2.149972    1.064997
siesta:     62   -1.539126   -0.411917   -0.381054
siesta:     63   -1.526482    0.719746    1.469284
siesta:     64    0.771968    0.189769   -0.712321
siesta:     65    0.687035   -0.130107    0.036127
siesta:     66   -0.485052    0.233800   -0.246049
siesta:     67   -0.441562    0.435506   -1.043524
siesta:     68    0.341106   -0.384760   -0.422309
siesta:     69    0.032511    0.500421    0.479707
siesta:     70   -0.463981   -0.098477    0.376651
siesta:     71   -0.579054   -0.346092   -1.070956
siesta:     72    0.131430    0.537806    0.802612
siesta:     73   -0.199528    1.004461    0.725345
siesta:     74    0.421970   -0.421471   -0.468201
siesta:     75    0.176952   -0.619982   -0.556541
siesta:     76    0.152723    0.453472    0.493159
siesta:     77    0.924531    0.485118   -0.537984
siesta:     78   -0.278200   -0.227078   -0.374085
siesta:     79    0.154710   -0.303200    0.364354
siesta:     80   -0.275496    0.424307    0.166639
siesta:     81   -0.082719    0.459407   -0.725495
siesta:     82    0.070904   -0.043187    0.598419
siesta:     83    0.797222    0.264584    0.832225
siesta:     84   -0.355742   -0.426189   -0.521827
siesta:     85   -0.176527   -0.104465   -0.768142
siesta:     86    0.197135   -0.184255    0.659054
siesta:     87    0.367083   -1.138542   -0.426086
siesta:     88   -0.036666    0.304829   -0.376273
siesta:     89   -0.399566   -0.082479    0.290413
siesta:     90    0.419542    0.290433    0.298995
siesta:     91    0.251318    0.018160   -0.560064
siesta:     92    0.102592   -0.216273    0.305218
siesta:     93    0.028092   -0.744462    0.859538
siesta:     94   -0.206857    0.362531   -0.595366
siesta:     95    0.149149    0.014797   -0.857770
siesta:     96   -0.447870   -0.046597    0.917844
siesta:     97   -0.993559   -0.231829   -0.599465
siesta:     98    0.362879    0.014545   -0.331228
siesta:     99   -0.055738    0.456065    0.265581
siesta:    100    0.030910   -0.592698    0.409858
siesta:    101   -0.031108   -0.332299   -0.529848
siesta:    102   -0.142384   -0.084138    0.821873
siesta:    103   -0.971269    0.280373    0.677221
siesta:    104    0.507900    0.137606   -0.519199
siesta:    105    0.448222   -0.269230   -0.906728
siesta:    106   -0.445004    0.297999    1.026167
siesta:    107    0.095113    0.965404   -0.652175
siesta:    108    0.031982   -0.381908   -0.331051
siesta:    109    0.335281    0.074101    0.455058
siesta:    110   -0.637751    0.055496    0.243603
siesta:    111   -0.356278    0.027971   -0.595600
siesta:    112   -0.178618    0.225119    0.677068
siesta:    113    0.193841    0.959298    0.768856
siesta:    114    0.230744   -0.543056   -0.479809
siesta:    115   -0.159436   -0.296229   -0.830842
siesta:    116    0.244437    0.337979    0.972285
siesta:    117    1.072779   -0.121732   -0.451536
siesta:    118   -0.309680   -0.008854   -0.420712
siesta:    119   -0.022643   -0.338725    0.475585
siesta:    120    0.042624    0.594209    0.244391
siesta:    121   -0.027939    0.350535   -0.762747
siesta:    122    0.359055    0.140910    0.653664
siesta:    123    0.388630   -0.155069    1.066821
siesta:    124   -0.670503    0.130456   -0.526301
siesta:    125    0.492079    0.128886   -2.952518
siesta:    126   -0.120289    0.032439    0.679505
siesta:    127   -0.363666   -0.152973   -1.119662
siesta:    128   -0.354110    0.104457    0.549515
siesta:    129    0.719744   -0.074266    0.122162
siesta:    130    0.075363   -1.223040    0.668749
siesta:    131    0.879013    0.220805    0.101029
siesta:    132   -0.845395   -0.133077   -0.281531
siesta:    133    0.196116   -0.174438    1.677271
siesta:    134   -1.383240   -0.136602    0.006716
siesta:    135    1.004571    0.364914   -1.048642
siesta:    136    0.119395   -0.184761    0.190081
siesta:    137   -0.149977   -0.150576    0.276900
siesta:    138   -0.170245    0.137587    0.276233
siesta:    139    0.130313    0.172921    0.079046
siesta:    140    0.033292   -0.544758    0.200574
siesta:    141    0.618518    0.028496    0.321619
siesta:    142   -0.532858    0.008959    0.171343
siesta:    143   -0.034752   -0.012633   -0.360543
siesta:    144    0.053933    0.576234    0.262808
siesta:    145   -0.014846   -0.955600   -0.042586
siesta:    146   -0.571009    0.565400   -0.014362
siesta:    147    0.907094   -0.010066    0.013633
siesta:    148    0.557081    0.556273    0.032936
siesta:    149   -0.979060   -0.004657   -0.044729
siesta:    150    0.561544   -0.560685    0.007148
siesta:    151   -0.577117   -0.571975   -0.019125
siesta:    152    0.025339    0.012341   -0.031657
siesta:    153   -0.020592    0.926048   -0.015785
siesta:    154   -0.005462   -0.835606   -0.055414
siesta:    155   -0.562935    0.600688    0.015705
siesta:    156    0.803983   -0.004918   -0.087179
siesta:    157    0.591297    0.575582    0.014515
siesta:    158   -0.844721   -0.001290   -0.024116
siesta:    159    0.603144   -0.566381    0.013225
siesta:    160   -0.568944   -0.585523    0.017389
siesta:    161    0.019413    0.009944    0.010430
siesta:    162   -0.008904    0.818603   -0.079506
siesta:    163   -0.524233    0.535759    0.010340
siesta:    164    0.524566    0.525893   -0.013187
siesta:    165    0.531195   -0.529290   -0.004392
siesta:    166   -0.522387   -0.530537    0.019853
siesta:    167    0.007557   -0.853384    0.057607
siesta:    168    0.866953    0.000271    0.024937
siesta:    169   -0.837907    0.003985    0.085887
siesta:    170   -0.009975   -0.001749   -0.023142
siesta:    171    0.003883    0.864784    0.032009
siesta:    172    0.006552   -0.953162    0.055333
siesta:    173   -0.594903    0.575483   -0.018247
siesta:    174    0.976018    0.000913    0.087842
siesta:    175    0.566918    0.584262   -0.025669
siesta:    176   -0.929984    0.003174    0.056093
siesta:    177    0.568150   -0.601192   -0.021426
siesta:    178   -0.580793   -0.577019   -0.015500
siesta:    179   -0.013449   -0.001688   -0.022991
siesta:    180    0.004448    0.972784    0.067598
siesta:    181    0.003980   -0.617775   -0.356946
siesta:    182   -0.658634    0.655142    0.005376
siesta:    183    0.597760    0.001752   -0.307458
siesta:    184    0.637210    0.651330    0.023608
siesta:    185   -0.605794    0.001857   -0.362990
siesta:    186    0.642590   -0.665292    0.016751
siesta:    187   -0.648143   -0.653368   -0.003200
siesta:    188    0.011694    0.007636    0.697572
siesta:    189    0.003542    0.613995   -0.335081
siesta:    190    0.259207   -0.237611   -0.254671
siesta:    191   -0.265018   -0.255593   -0.229104
siesta:    192   -0.251698    0.249369   -0.231223
siesta:    193    0.259277    0.244437   -0.284404
siesta: ----------------------------------------
siesta:    Tot    0.017877   -0.020987   -0.006616

siesta: Stress tensor (static) (eV/Ang**3):
siesta:     0.000500    0.000021    0.000009
siesta:     0.000021    0.000498   -0.000024
siesta:     0.000009   -0.000024    0.001160

siesta: Cell volume =      77824.536209 Ang**3

siesta: Pressure (static):
siesta:                Solid            Molecule  Units
siesta:          -0.00000783         -0.00000008  Ry/Bohr**3
siesta:          -0.00071912         -0.00000727  eV/Ang**3
siesta:          -1.15217171         -0.01165485  kBar
(Free)E+ p_basis*V_orbitals  =     -117381.421733
(Free)Eharris+ p_basis*V_orbitals  =     -117381.421734
siesta: Total spin polarization (x,y,z) =    -0.003042    0.000655    0.503826
siesta: S , {S} =     0.503836   -0.003042    0.000655    0.503826

siesta: Electric dipole (a.u.)  =   -0.606541   -1.832345    1.779033
siesta: Electric dipole (Debye) =   -1.541675   -4.657360    4.521855

dhscf: Vacuum level (max, mean) =    3.847636    0.005396 eV

timer: Elapsed wall time (sec) =  106126.951
timer: CPU execution times (sec):

Routine            Calls   Time/call    Tot.time        %
siesta                 1  106120.706  106120.706   100.00
Setup                  1       0.460       0.460     0.00
bands                  1       0.000       0.000     0.00
KSV_init               1       0.000       0.000     0.00
IterGeom               1  106073.035  106073.035    99.96
state_init             1       2.920       2.920     0.00
hsparse                1       0.056       0.056     0.00
overlap                1       2.737       2.737     0.00
Setup_H0               1      68.419      68.419     0.06
naefs                  2       0.007       0.014     0.00
MolMec                 2       0.000       0.000     0.00
kinefsm                2       1.433       2.867     0.00
nlefsm                 2       8.019      16.038     0.02
spinorb                2       0.279       0.559     0.00
DHSCF_Init             1      49.861      49.861     0.05
DHSCF1                 1       0.486       0.486     0.00
INITMESH               1       0.000       0.000     0.00
DHSCF2                 1      49.374      49.374     0.05
REMESH                 1       7.134       7.134     0.01
REORD                175       0.300      52.565     0.05
PHION                  1      17.744      17.744     0.02
COMM_BSC             170       0.301      51.118     0.05
POISON                22      15.945     350.781     0.33
fft                   44       6.696     294.632     0.28
IterSCF               18    5882.800  105890.407    99.78
setup_H               19      54.114    1028.167     0.97
DHSCF                 21      55.989    1175.759     1.11
DHSCF3                21      53.328    1119.884     1.06
rhoofd                21       9.985     209.695     0.20
CellXC                21       5.591     117.419     0.11
cellXC                21       5.591     117.415     0.11
vmat                  20       8.189     163.771     0.15
writeHSX              20       0.112       2.246     0.00
compute_dm            18    5825.566  104860.185    98.81
diagon                18    5825.553  104859.959    98.81
cdiag                972      75.246   73139.506    68.92
cdiag1               972       7.029    6832.503     6.44
cdiag2               972      17.035   16557.913    15.60
cdiag3               972      45.229   43962.959    41.43
cdiag4               972       5.953    5785.954     5.45
MIXER                 17       0.080       1.357     0.00
PostSCF                1     111.227     111.227     0.10
DHSCF4                 1      55.875      55.875     0.05
dfscf                  1      45.648      45.648     0.04
overfsm                1       0.102       0.102     0.00
state_analysis         1       0.016       0.016     0.00
siesta_move            1       0.000       0.000     0.00
Analysis               1      47.164      47.164     0.04
optical                1       0.000       0.000     0.00
  
>> End of run:  11-JAN-2024  23:59:47
Job completed
