
                           ***********************       
                           *  WELCOME TO SIESTA  *       
                           ***********************       

reinit: Reading from standard input
reinit: Dumped input in INPUT_TMP.24952
************************** Dump of input data file ****************************
SystemName  em
SystemLabel em
==================================================
==================================================
# SPECIES AND BASIS
# Number of species
NumberOfSpecies 5
%block ChemicalSpeciesLabel
  1   79  Au
  2    7  N
  3    6  C
  4    1  H
  5    8  O
%endblock ChemicalSpeciesLabel
%block    PAO.BasisSizes
  Au        SZ
   N        DZP
   C        DZP
   H        DZP
   O        DZP
%endblock PAO.BasisSizes
%block PS.lmax
  Au  2
%endblock PS.lmax
==================================================
==================================================
# K-points
%block kgrid_Monkhorst_Pack
3   0   0   0.0
0   3   0   0.0
0   0   3   0.0
%endblock kgrid_Monkhorst_Pack
T CELL AND ATOMIC POSITIONS
==================================================
==================================================
# UNIT CELL AND ATOMIC POSITIONS
# UNIT CELL
LatticeConstant       1.00 Ang
%block LatticeVectors
30.00000000   0.00000000000   0.0000000000
0.000000000   30.0000000000   0.0000000000
0.000000000   0.00000000000  84.4717069000
%endblock LatticeVectors
# Atomic coordinates
NumberOfAtoms 191
AtomicCoordinatesFormat ScaledCartesian
%block AtomicCoordinatesAndAtomicSpecies < ../em.fdf
==================================================
==================================================
# General variables
#ElectronicTemperature  100 K
MeshCutoff           350. Ry
xc.functional         LDA           # Exchange-correlation functional
xc.authors            CA
SpinPolarized .true.
SolutionMethod diagon
#SolutionMethod Transiesta
NetCharge		0
==================================================
==================================================
# SCF variables
DM.MixSCF1   T
MaxSCFIterations      300           # Maximum number of SCF iter
DM.MixingWeight       0.03          # New DM amount for next SCF cycle
DM.Tolerance          1.d-4         # Tolerance in maximum difference
DM.UseSaveDM          true          # to use continuation files
DM.NumberPulay         5
Diag.DivideAndConquer  no
Diag.ParallelOverK     yes
==================================================
==================================================
# MD variables
MD.FinalTimeStep 1
MD.TypeOfRun CG
MD.NumCGsteps     000
MD.UseSaveXV      .true.
==================================================
==================================================
# Output variables
WriteMullikenPop                1
WriteBands                      .false.
SaveRho                         .false.
SaveDeltaRho                    .false.
SaveHS                          .true.
SaveElectrostaticPotential      True
SaveTotalPotential              no
WriteCoorXmol                   .true.
WriteMDXmol                     .true.
WriteMDhistory                  .false.
WriteEigenvalues                yes
==================================================
==================================================
# Transiesta information
# GF OPTIONS
TS.ComplexContour.Emin    -30.0 eV
TS.ComplexContour.NPoles       10
TS.ComplexContour.NCircle      30
TS.ComplexContour.NLine        10
# BIAS OPTIONS
TS.biasContour.NumPoints       00
# TS OPTIONS
TS.Voltage 0.000000 eV
# TBT OPTIONS
TS.TBT.Emin -5.0 eV
TS.TBT.Emax +5.0 eV
TS.TBT.NPoints 500
TS.TBT.NEigen 3
TS.TBT.Eta        0.000001 Ry
# Write hamiltonian
TS.SaveHS   .true.
# LEFT ELECTRODE
TS.HSFileLeft  ./Au_Elec_ABC.TSHS
#TS.ReplicateA1Left    1
#TS.ReplicateA2Left    1
TS.NumUsedAtomsLeft    9
TS.BufferAtomsLeft     0
# RIGHT ELECTRODE
TS.HSFileRight  ./Au_Elec_ABC.TSHS
#TS.ReplicateA1Right   1
#TS.ReplicateA2Right   1
TS.NumUsedAtomsRight   9
TS.BufferAtomsRight    0
==================================================
==================================================
************************** End of input data file *****************************

reinit: -----------------------------------------------------------------------
reinit: System Name: em
reinit: -----------------------------------------------------------------------
reinit: System Label: em
reinit: -----------------------------------------------------------------------
Siesta Version: siesta-4.1--736
Architecture  : unknown
Compiler flags: gfortran -O2 -fPIC -ftree-vectorize -fallow-argument-mismatch
PP flags      : -DFC_HAVE_ABORT
Libraries     : libsiestaLAPACK.a libsiestaBLAS.a
SERIAL version

* Running in serial mode
>> Start of run:   8-DEC-2023  22:51:41

initatom: Reading input for the pseudopotentials and atomic orbitals ----------
Species number:   1 Atomic number:   79 Label: Au
Species number:   2 Atomic number:    7 Label: N
Species number:   3 Atomic number:    6 Label: C
Species number:   4 Atomic number:    1 Label: H
Species number:   5 Atomic number:    8 Label: O

Ground state valence configuration:   6s01  5d10
Reading pseudopotential information in formatted form from Au.psf

Valence configuration for pseudopotential generation:
6s( 1.00) rc: 2.60
6p( 0.00) rc: 2.77
5d(10.00) rc: 2.60
5f( 0.00) rc: 2.60
Ground state valence configuration:   2s02  2p03
Reading pseudopotential information in formatted form from N.psf

Valence configuration for pseudopotential generation:
2s( 2.00) rc: 1.48
2p( 3.00) rc: 1.48
3d( 0.00) rc: 1.48
4f( 0.00) rc: 1.48
Ground state valence configuration:   2s02  2p02
Reading pseudopotential information in formatted form from C.psf

Valence configuration for pseudopotential generation:
2s( 2.00) rc: 1.54
2p( 2.00) rc: 1.54
3d( 0.00) rc: 1.54
4f( 0.00) rc: 1.54
Ground state valence configuration:   1s01
Reading pseudopotential information in formatted form from H.psf

Valence configuration for pseudopotential generation:
1s( 1.00) rc: 1.31
2p( 0.00) rc: 1.31
3d( 0.00) rc: 0.37
4f( 0.00) rc: 1.31
Ground state valence configuration:   2s02  2p04
Reading pseudopotential information in formatted form from O.psf

Valence configuration for pseudopotential generation:
2s( 2.00) rc: 1.47
2p( 4.00) rc: 1.47
3d( 0.00) rc: 1.47
4f( 0.00) rc: 1.47
resizes: Read basis size for species Au = sz                  
resizes: Read basis size for species N = dzp                 
resizes: Read basis size for species C = dzp                 
resizes: Read basis size for species H = dzp                 
resizes: Read basis size for species O = dzp                 
relmxkb: Read Max KB Ang. Momentum=    2 for species Au
For N, standard SIESTA heuristics set lmxkb to 3
 (one more than the basis l, including polarization orbitals).
Use PS.lmax or PS.KBprojectors blocks to override.
For C, standard SIESTA heuristics set lmxkb to 3
 (one more than the basis l, including polarization orbitals).
Use PS.lmax or PS.KBprojectors blocks to override.
For H, standard SIESTA heuristics set lmxkb to 2
 (one more than the basis l, including polarization orbitals).
Use PS.lmax or PS.KBprojectors blocks to override.
For O, standard SIESTA heuristics set lmxkb to 3
 (one more than the basis l, including polarization orbitals).
Use PS.lmax or PS.KBprojectors blocks to override.

<basis_specs>
===============================================================================
Au                   Z=  79    Mass=  196.97        Charge= 0.17977+309
Lmxo=2 Lmxkb= 2    BasisType=split      Semic=F
L=0  Nsemic=0  Cnfigmx=6
          n=1  nzeta=1  polorb=0
            splnorm:   0.15000    
               vcte:    0.0000    
               rinn:    0.0000    
               qcoe:    0.0000    
               qyuk:    0.0000    
               qwid:   0.10000E-01
                rcs:    0.0000    
            lambdas:    1.0000    
L=1  Nsemic=0  Cnfigmx=6
L=2  Nsemic=0  Cnfigmx=5
          n=1  nzeta=1  polorb=0
            splnorm:   0.15000    
               vcte:    0.0000    
               rinn:    0.0000    
               qcoe:    0.0000    
               qyuk:    0.0000    
               qwid:   0.10000E-01
                rcs:    0.0000    
            lambdas:    1.0000    
-------------------------------------------------------------------------------
L=0  Nkbl=1  erefs: 0.17977+309
L=1  Nkbl=1  erefs: 0.17977+309
L=2  Nkbl=1  erefs: 0.17977+309
===============================================================================
</basis_specs>

atom: Called for Au                    (Z =  79)

read_vps: Pseudopotential generation method:
read_vps: ATM3      Troullier-Martins                       
Total valence charge:   11.00000

xc_check: Exchange-correlation functional:
xc_check: Ceperley-Alder
V l=0 = -2*Zval/r beyond r=  3.8789
V l=1 = -2*Zval/r beyond r=  3.8789
V l=2 = -2*Zval/r beyond r=  3.8789
All V_l potentials equal beyond r=  2.7334
This should be close to max(r_c) in ps generation
All pots = -2*Zval/r beyond r=  3.8789
Using large-core scheme for Vlocal

atom: Estimated core radius    3.87887

atom: Including non-local core corrections could be a good idea
atom: Maximum radius for 4*pi*r*r*local-pseudopot. charge    4.23357
atom: Maximum radius for r*vlocal+2*Zval:    3.92766
GHOST: No ghost state for L =  0
GHOST: No ghost state for L =  1
GHOST: No ghost state for L =  2

KBgen: Kleinman-Bylander projectors: 
   l= 0   rc=  2.837834   el= -0.325216   Ekb=  3.092226   kbcos=  0.236106
   l= 1   rc=  2.837834   el= -0.069662   Ekb=  1.440738   kbcos=  0.234618
   l= 2   rc=  2.802581   el= -0.609192   Ekb= -6.338546   kbcos= -0.737961

KBgen: Total number of  Kleinman-Bylander projectors:    9
atom: -------------------------------------------------------------------------

atom: SANKEY-TYPE ORBITALS:

SPLIT: Orbitals with angular momentum L= 0

SPLIT: Basis orbitals for state 6s

SPLIT: PAO cut-off radius determined from an
SPLIT: energy shift=  0.020000 Ry

   izeta = 1
                 lambda =    1.000000
                     rc =    6.723087
                 energy =   -0.304906
                kinetic =    0.318820
    potential(screened) =   -0.623726
       potential(ionic) =   -7.635970

SPLIT: Orbitals with angular momentum L= 2

SPLIT: Basis orbitals for state 5d

SPLIT: PAO cut-off radius determined from an
SPLIT: energy shift=  0.020000 Ry

   izeta = 1
                 lambda =    1.000000
                     rc =    4.180976
                 energy =   -0.591057
                kinetic =    5.026279
    potential(screened) =   -5.617337
       potential(ionic) =  -16.519179
atom: Total number of Sankey-type orbitals:  6

atm_pop: Valence configuration (for local Pseudopot. screening):
 6s( 1.00)                                                            
 6p( 0.00)                                                            
 5d(10.00)                                                            
Vna: chval, zval:   11.00000  11.00000

Vna:  Cut-off radius for the neutral-atom potential:   6.723087

atom: _________________________________________________________________________

<basis_specs>
===============================================================================
N                    Z=   7    Mass=  14.010        Charge= 0.17977+309
Lmxo=1 Lmxkb= 3    BasisType=split      Semic=F
L=0  Nsemic=0  Cnfigmx=2
          n=1  nzeta=2  polorb=0
            splnorm:   0.15000    
               vcte:    0.0000    
               rinn:    0.0000    
               qcoe:    0.0000    
               qyuk:    0.0000    
               qwid:   0.10000E-01
                rcs:    0.0000      0.0000    
            lambdas:    1.0000      1.0000    
L=1  Nsemic=0  Cnfigmx=2
          n=1  nzeta=2  polorb=1
            splnorm:   0.15000    
               vcte:    0.0000    
               rinn:    0.0000    
               qcoe:    0.0000    
               qyuk:    0.0000    
               qwid:   0.10000E-01
                rcs:    0.0000      0.0000    
            lambdas:    1.0000      1.0000    
-------------------------------------------------------------------------------
L=0  Nkbl=1  erefs: 0.17977+309
L=1  Nkbl=1  erefs: 0.17977+309
L=2  Nkbl=1  erefs: 0.17977+309
L=3  Nkbl=1  erefs: 0.17977+309
===============================================================================
</basis_specs>

atom: Called for N                     (Z =   7)

read_vps: Pseudopotential generation method:
read_vps: ATM3      Troullier-Martins                       
Total valence charge:    5.00000

xc_check: Exchange-correlation functional:
xc_check: Ceperley-Alder
V l=0 = -2*Zval/r beyond r=  1.4606
V l=1 = -2*Zval/r beyond r=  1.4606
V l=2 = -2*Zval/r beyond r=  1.4606
V l=3 = -2*Zval/r beyond r=  1.4606
All V_l potentials equal beyond r=  1.4606
This should be close to max(r_c) in ps generation
All pots = -2*Zval/r beyond r=  1.4606

VLOCAL1: 99.0% of the norm of Vloc inside     20.347 Ry
VLOCAL1: 99.9% of the norm of Vloc inside     46.372 Ry
atom: Maximum radius for 4*pi*r*r*local-pseudopot. charge    1.76189
atom: Maximum radius for r*vlocal+2*Zval:    1.53550
GHOST: No ghost state for L =  0
GHOST: No ghost state for L =  1
GHOST: No ghost state for L =  2
GHOST: No ghost state for L =  3

KBgen: Kleinman-Bylander projectors: 
   l= 0   rc=  1.634559   el= -1.352239   Ekb=  4.901185   kbcos=  0.337501
   l= 1   rc=  1.614250   el= -0.532623   Ekb= -5.544141   kbcos= -0.433040
   l= 2   rc=  1.740002   el=  0.002346   Ekb= -1.331777   kbcos= -0.007563
   l= 3   rc=  1.806505   el=  0.003449   Ekb= -0.515466   kbcos= -0.000994

KBgen: Total number of  Kleinman-Bylander projectors:   16
atom: -------------------------------------------------------------------------

atom: SANKEY-TYPE ORBITALS:
atom: Selected multiple-zeta basis: split     

SPLIT: Orbitals with angular momentum L= 0

SPLIT: Basis orbitals for state 2s

SPLIT: PAO cut-off radius determined from an
SPLIT: energy shift=  0.020000 Ry

   izeta = 1
                 lambda =    1.000000
                     rc =    3.683980
                 energy =   -1.333780
                kinetic =    1.203249
    potential(screened) =   -2.537029
       potential(ionic) =   -8.126274

   izeta = 2
                 rmatch =    2.905100
              splitnorm =    0.150000
                 energy =   -1.138702
                kinetic =    1.810192
    potential(screened) =   -2.948894
       potential(ionic) =   -8.945013

SPLIT: Orbitals with angular momentum L= 1

SPLIT: Basis orbitals for state 2p

SPLIT: PAO cut-off radius determined from an
SPLIT: energy shift=  0.020000 Ry

   izeta = 1
                 lambda =    1.000000
                     rc =    4.280232
                 energy =   -0.512466
                kinetic =    3.598849
    potential(screened) =   -4.111315
       potential(ionic) =   -9.550563

   izeta = 2
                 rmatch =    2.941647
              splitnorm =    0.150000
                 energy =   -0.292244
                kinetic =    5.357522
    potential(screened) =   -5.649767
       potential(ionic) =  -11.693436

POLgen: Perturbative polarization orbital with L=  2

POLgen: Polarization orbital for state 2p

   izeta = 1
                     rc =    4.280232
                 energy =    1.826084
                kinetic =    3.687342
    potential(screened) =   -1.861257
       potential(ionic) =   -6.363951
atom: Total number of Sankey-type orbitals: 13

atm_pop: Valence configuration (for local Pseudopot. screening):
 2s( 2.00)                                                            
 2p( 3.00)                                                            
Vna: chval, zval:    5.00000   5.00000

Vna:  Cut-off radius for the neutral-atom potential:   4.280232

atom: _________________________________________________________________________

<basis_specs>
===============================================================================
C                    Z=   6    Mass=  12.010        Charge= 0.17977+309
Lmxo=1 Lmxkb= 3    BasisType=split      Semic=F
L=0  Nsemic=0  Cnfigmx=2
          n=1  nzeta=2  polorb=0
            splnorm:   0.15000    
               vcte:    0.0000    
               rinn:    0.0000    
               qcoe:    0.0000    
               qyuk:    0.0000    
               qwid:   0.10000E-01
                rcs:    0.0000      0.0000    
            lambdas:    1.0000      1.0000    
L=1  Nsemic=0  Cnfigmx=2
          n=1  nzeta=2  polorb=1
            splnorm:   0.15000    
               vcte:    0.0000    
               rinn:    0.0000    
               qcoe:    0.0000    
               qyuk:    0.0000    
               qwid:   0.10000E-01
                rcs:    0.0000      0.0000    
            lambdas:    1.0000      1.0000    
-------------------------------------------------------------------------------
L=0  Nkbl=1  erefs: 0.17977+309
L=1  Nkbl=1  erefs: 0.17977+309
L=2  Nkbl=1  erefs: 0.17977+309
L=3  Nkbl=1  erefs: 0.17977+309
===============================================================================
</basis_specs>

atom: Called for C                     (Z =   6)

read_vps: Pseudopotential generation method:
read_vps: ATM3      Troullier-Martins                       
Total valence charge:    4.00000

xc_check: Exchange-correlation functional:
xc_check: Ceperley-Alder
V l=0 = -2*Zval/r beyond r=  1.5227
V l=1 = -2*Zval/r beyond r=  1.5227
V l=2 = -2*Zval/r beyond r=  1.5227
V l=3 = -2*Zval/r beyond r=  1.5038
All V_l potentials equal beyond r=  1.5227
This should be close to max(r_c) in ps generation
All pots = -2*Zval/r beyond r=  1.5227

VLOCAL1: 99.0% of the norm of Vloc inside     18.722 Ry
VLOCAL1: 99.9% of the norm of Vloc inside     42.668 Ry
atom: Maximum radius for 4*pi*r*r*local-pseudopot. charge    1.83678
atom: Maximum radius for r*vlocal+2*Zval:    1.58088
GHOST: No ghost state for L =  0
GHOST: No ghost state for L =  1
GHOST: No ghost state for L =  2
GHOST: No ghost state for L =  3

KBgen: Kleinman-Bylander projectors: 
   l= 0   rc=  1.747182   el= -1.001948   Ekb=  4.950286   kbcos=  0.319819
   l= 1   rc=  1.747182   el= -0.398598   Ekb= -4.108613   kbcos= -0.367053
   l= 2   rc=  1.930978   el=  0.002326   Ekb= -1.042946   kbcos= -0.009366
   l= 3   rc=  2.055542   el=  0.003420   Ekb= -0.408633   kbcos= -0.001262

KBgen: Total number of  Kleinman-Bylander projectors:   16
atom: -------------------------------------------------------------------------

atom: SANKEY-TYPE ORBITALS:
atom: Selected multiple-zeta basis: split     

SPLIT: Orbitals with angular momentum L= 0

SPLIT: Basis orbitals for state 2s

SPLIT: PAO cut-off radius determined from an
SPLIT: energy shift=  0.020000 Ry

   izeta = 1
                 lambda =    1.000000
                     rc =    4.191849
                 energy =   -0.983897
                kinetic =    0.880927
    potential(screened) =   -1.864824
       potential(ionic) =   -5.475687

   izeta = 2
                 rmatch =    3.431921
              splitnorm =    0.150000
                 energy =   -0.853083
                kinetic =    1.298222
    potential(screened) =   -2.151305
       potential(ionic) =   -5.995890

SPLIT: Orbitals with angular momentum L= 1

SPLIT: Basis orbitals for state 2p

SPLIT: PAO cut-off radius determined from an
SPLIT: energy shift=  0.020000 Ry

   izeta = 1
                 lambda =    1.000000
                     rc =    4.870301
                 energy =   -0.379093
                kinetic =    2.540023
    potential(screened) =   -2.919116
       potential(ionic) =   -6.427960

   izeta = 2
                 rmatch =    3.475094
              splitnorm =    0.150000
                 energy =   -0.215057
                kinetic =    3.814571
    potential(screened) =   -4.029628
       potential(ionic) =   -7.920250

POLgen: Perturbative polarization orbital with L=  2

POLgen: Polarization orbital for state 2p

   izeta = 1
                     rc =    4.870301
                 energy =    1.280996
                kinetic =    2.631310
    potential(screened) =   -1.350314
       potential(ionic) =   -4.295640
atom: Total number of Sankey-type orbitals: 13

atm_pop: Valence configuration (for local Pseudopot. screening):
 2s( 2.00)                                                            
 2p( 2.00)                                                            
Vna: chval, zval:    4.00000   4.00000

Vna:  Cut-off radius for the neutral-atom potential:   4.870301

atom: _________________________________________________________________________

<basis_specs>
===============================================================================
H                    Z=   1    Mass=  1.0100        Charge= 0.17977+309
Lmxo=0 Lmxkb= 2    BasisType=split      Semic=F
L=0  Nsemic=0  Cnfigmx=1
          n=1  nzeta=2  polorb=1
            splnorm:   0.15000    
               vcte:    0.0000    
               rinn:    0.0000    
               qcoe:    0.0000    
               qyuk:    0.0000    
               qwid:   0.10000E-01
                rcs:    0.0000      0.0000    
            lambdas:    1.0000      1.0000    
-------------------------------------------------------------------------------
L=0  Nkbl=1  erefs: 0.17977+309
L=1  Nkbl=1  erefs: 0.17977+309
L=2  Nkbl=1  erefs: 0.17977+309
===============================================================================
</basis_specs>

atom: Called for H                     (Z =   1)

read_vps: Pseudopotential generation method:
read_vps: ATM3      Troullier-Martins                       
Total valence charge:    1.00000

xc_check: Exchange-correlation functional:
xc_check: Ceperley-Alder
V l=0 = -2*Zval/r beyond r=  1.2977
V l=1 = -2*Zval/r beyond r=  1.2815
V l=2 = -2*Zval/r beyond r=  1.1307
All V_l potentials equal beyond r=  1.2977
This should be close to max(r_c) in ps generation
All pots = -2*Zval/r beyond r=  1.2977

VLOCAL1: 99.0% of the norm of Vloc inside     25.776 Ry
VLOCAL1: 99.9% of the norm of Vloc inside     58.745 Ry
atom: Maximum radius for 4*pi*r*r*local-pseudopot. charge    1.52711
atom: Maximum radius for r*vlocal+2*Zval:    1.28155
GHOST: No ghost state for L =  0
GHOST: No ghost state for L =  1
GHOST: No ghost state for L =  2

KBgen: Kleinman-Bylander projectors: 
   l= 0   rc=  1.434438   el= -0.467325   Ekb= -1.940326   kbcos= -0.353040
   l= 1   rc=  1.508111   el=  0.001430   Ekb= -0.480826   kbcos= -0.024144
   l= 2   rc=  1.527112   el=  0.002365   Ekb= -0.479392   kbcos= -0.001656

KBgen: Total number of  Kleinman-Bylander projectors:    9
atom: -------------------------------------------------------------------------

atom: SANKEY-TYPE ORBITALS:
atom: Selected multiple-zeta basis: split     

SPLIT: Orbitals with angular momentum L= 0

SPLIT: Basis orbitals for state 1s

SPLIT: PAO cut-off radius determined from an
SPLIT: energy shift=  0.020000 Ry

   izeta = 1
                 lambda =    1.000000
                     rc =    4.828263
                 energy =   -0.449375
                kinetic =    0.925762
    potential(screened) =   -1.375137
       potential(ionic) =   -1.911235

   izeta = 2
                 rmatch =    3.854947
              splitnorm =    0.150000
                 energy =   -0.336149
                kinetic =    1.498089
    potential(screened) =   -1.834238
       potential(ionic) =   -2.406110

POLgen: Perturbative polarization orbital with L=  1

POLgen: Polarization orbital for state 1s

   izeta = 1
                     rc =    4.828263
                 energy =    0.707053
                kinetic =    1.398668
    potential(screened) =   -0.691614
       potential(ionic) =   -1.171973
atom: Total number of Sankey-type orbitals:  5

atm_pop: Valence configuration (for local Pseudopot. screening):
 1s( 1.00)                                                            
Vna: chval, zval:    1.00000   1.00000

Vna:  Cut-off radius for the neutral-atom potential:   4.828263

atom: _________________________________________________________________________

<basis_specs>
===============================================================================
O                    Z=   8    Mass=  16.000        Charge= 0.17977+309
Lmxo=1 Lmxkb= 3    BasisType=split      Semic=F
L=0  Nsemic=0  Cnfigmx=2
          n=1  nzeta=2  polorb=0
            splnorm:   0.15000    
               vcte:    0.0000    
               rinn:    0.0000    
               qcoe:    0.0000    
               qyuk:    0.0000    
               qwid:   0.10000E-01
                rcs:    0.0000      0.0000    
            lambdas:    1.0000      1.0000    
L=1  Nsemic=0  Cnfigmx=2
          n=1  nzeta=2  polorb=1
            splnorm:   0.15000    
               vcte:    0.0000    
               rinn:    0.0000    
               qcoe:    0.0000    
               qyuk:    0.0000    
               qwid:   0.10000E-01
                rcs:    0.0000      0.0000    
            lambdas:    1.0000      1.0000    
-------------------------------------------------------------------------------
L=0  Nkbl=1  erefs: 0.17977+309
L=1  Nkbl=1  erefs: 0.17977+309
L=2  Nkbl=1  erefs: 0.17977+309
L=3  Nkbl=1  erefs: 0.17977+309
===============================================================================
</basis_specs>

atom: Called for O                     (Z =   8)

read_vps: Pseudopotential generation method:
read_vps: ATM3      Troullier-Martins                       
Total valence charge:    6.00000

xc_check: Exchange-correlation functional:
xc_check: Ceperley-Alder
V l=0 = -2*Zval/r beyond r=  1.4482
V l=1 = -2*Zval/r beyond r=  1.4482
V l=2 = -2*Zval/r beyond r=  1.4482
V l=3 = -2*Zval/r beyond r=  1.4482
All V_l potentials equal beyond r=  1.4482
This should be close to max(r_c) in ps generation
All pots = -2*Zval/r beyond r=  1.4482

VLOCAL1: 99.0% of the norm of Vloc inside     20.696 Ry
VLOCAL1: 99.9% of the norm of Vloc inside     47.167 Ry
atom: Maximum radius for 4*pi*r*r*local-pseudopot. charge    1.74697
atom: Maximum radius for r*vlocal+2*Zval:    1.52250
GHOST: No ghost state for L =  0
GHOST: No ghost state for L =  1
GHOST: No ghost state for L =  2
GHOST: No ghost state for L =  3

KBgen: Kleinman-Bylander projectors: 
   l= 0   rc=  1.620715   el= -1.742414   Ekb=  4.456556   kbcos=  0.290194
   l= 1   rc=  1.600578   el= -0.676589   Ekb= -7.144994   kbcos= -0.499132
   l= 2   rc=  1.703827   el=  0.002386   Ekb= -1.602359   kbcos= -0.006666
   l= 3   rc=  1.746967   el=  0.003508   Ekb= -0.610601   kbcos= -0.000909

KBgen: Total number of  Kleinman-Bylander projectors:   16
atom: -------------------------------------------------------------------------

atom: SANKEY-TYPE ORBITALS:
atom: Selected multiple-zeta basis: split     

SPLIT: Orbitals with angular momentum L= 0

SPLIT: Basis orbitals for state 2s

SPLIT: PAO cut-off radius determined from an
SPLIT: energy shift=  0.020000 Ry

   izeta = 1
                 lambda =    1.000000
                     rc =    3.305093
                 energy =   -1.723753
                kinetic =    1.583904
    potential(screened) =   -3.307656
       potential(ionic) =  -11.288993

   izeta = 2
                 rmatch =    2.510382
              splitnorm =    0.150000
                 energy =   -1.476627
                kinetic =    2.379421
    potential(screened) =   -3.856049
       potential(ionic) =  -12.446732

SPLIT: Orbitals with angular momentum L= 1

SPLIT: Basis orbitals for state 2p

SPLIT: PAO cut-off radius determined from an
SPLIT: energy shift=  0.020000 Ry

   izeta = 1
                 lambda =    1.000000
                     rc =    3.937239
                 energy =   -0.658849
                kinetic =    4.693978
    potential(screened) =   -5.352826
       potential(ionic) =  -13.082398

   izeta = 2
                 rmatch =    2.541963
              splitnorm =    0.150000
                 energy =   -0.363305
                kinetic =    7.018769
    potential(screened) =   -7.382074
       potential(ionic) =  -16.005408

POLgen: Perturbative polarization orbital with L=  2

POLgen: Polarization orbital for state 2p

   izeta = 1
                     rc =    3.937239
                 energy =    2.394514
                kinetic =    4.808418
    potential(screened) =   -2.413904
       potential(ionic) =   -8.736781
atom: Total number of Sankey-type orbitals: 13

atm_pop: Valence configuration (for local Pseudopot. screening):
 2s( 2.00)                                                            
 2p( 4.00)                                                            
Vna: chval, zval:    6.00000   6.00000

Vna:  Cut-off radius for the neutral-atom potential:   3.937239

atom: _________________________________________________________________________

prinput: Basis input ----------------------------------------------------------

PAO.BasisType split     

%block ChemicalSpeciesLabel
    1   79 Au                      # Species index, atomic number, species label
    2    7 N                       # Species index, atomic number, species label
    3    6 C                       # Species index, atomic number, species label
    4    1 H                       # Species index, atomic number, species label
    5    8 O                       # Species index, atomic number, species label
%endblock ChemicalSpeciesLabel

%block PAO.Basis                 # Define Basis set
Au                    2                    # Species label, number of l-shells
 n=6   0   1                         # n, l, Nzeta 
   6.723   
   1.000   
 n=5   2   1                         # n, l, Nzeta 
   4.181   
   1.000   
N                     2                    # Species label, number of l-shells
 n=2   0   2                         # n, l, Nzeta 
   3.684      2.905   
   1.000      1.000   
 n=2   1   2 P   1                   # n, l, Nzeta, Polarization, NzetaPol
   4.280      2.942   
   1.000      1.000   
C                     2                    # Species label, number of l-shells
 n=2   0   2                         # n, l, Nzeta 
   4.192      3.432   
   1.000      1.000   
 n=2   1   2 P   1                   # n, l, Nzeta, Polarization, NzetaPol
   4.870      3.475   
   1.000      1.000   
H                     1                    # Species label, number of l-shells
 n=1   0   2 P   1                   # n, l, Nzeta, Polarization, NzetaPol
   4.828      3.855   
   1.000      1.000   
O                     2                    # Species label, number of l-shells
 n=2   0   2                         # n, l, Nzeta 
   3.305      2.510   
   1.000      1.000   
 n=2   1   2 P   1                   # n, l, Nzeta, Polarization, NzetaPol
   3.937      2.542   
   1.000      1.000   
%endblock PAO.Basis

prinput: ----------------------------------------------------------------------

coor:   Atomic-coordinates input format  =     Cartesian coordinates
coor:                                          (in units of alat)

siesta: WARNING: XV file not found

siesta: Atomic coordinates (Bohr) and species
siesta:      2.71925   2.71925   0.00000  1        1
siesta:      8.15774   2.71925   0.00000  1        2
siesta:      8.15774   8.15774   0.00000  1        3
siesta:      2.71925   8.15774   0.00000  1        4
siesta:      5.43849   0.00000   3.84559  1        5
siesta:      5.43849   5.43849   3.84559  1        6
siesta:      2.71925   2.71925   7.69119  1        7
siesta:      8.15774   2.71925   7.69119  1        8
siesta:     10.87698   5.43849   3.84559  1        9
siesta:      8.15774   8.15774   7.69119  1       10
siesta:      0.00000   5.43849   3.84559  1       11
siesta:      2.71925   8.15774   7.69119  1       12
siesta:      5.43849  10.87698   3.84559  1       13
siesta:      5.43849   0.00000  11.53678  1       14
siesta:      5.43849   5.43849  11.53678  1       15
siesta:      2.71925   2.71925  15.38238  1       16
siesta:      8.15774   2.71925  15.38238  1       17
siesta:     10.87698   5.43849  11.53678  1       18
siesta:      8.15774   8.15774  15.38238  1       19
siesta:      0.00000   5.43849  11.53678  1       20
siesta:      2.71925   8.15774  15.38238  1       21
siesta:      5.43849  10.87698  11.53678  1       22
siesta:      5.43849   0.00000  19.22797  1       23
siesta:      5.43849   5.43849  19.22797  1       24
siesta:     10.87698   5.43849  19.22797  1       25
siesta:      0.00000   5.43849  19.22797  1       26
siesta:      5.43849  10.87698  19.22797  1       27
siesta:      2.71925   2.71925  23.07357  1       28
siesta:      8.15774   2.71925  23.07357  1       29
siesta:      8.15774   8.15774  23.07357  1       30
siesta:      2.71925   8.15774  23.07357  1       31
siesta:      5.43849   0.00000  26.91916  1       32
siesta:      5.43849   5.43849  26.91916  1       33
siesta:      2.71925   2.71925  30.76475  1       34
siesta:      8.15774   2.71925  30.76475  1       35
siesta:     10.87698   5.43849  26.91916  1       36
siesta:      8.15774   8.15774  30.76475  1       37
siesta:      0.00000   5.43849  26.91916  1       38
siesta:      2.71925   8.15774  30.76475  1       39
siesta:      5.43849  10.87698  26.91916  1       40
siesta:      5.43849   0.00000  34.61035  1       41
siesta:      5.43849   5.43849  34.61035  1       42
siesta:      2.71925   2.71925  38.45594  1       43
siesta:      8.15774   2.71925  38.45594  1       44
siesta:     10.87698   5.43849  34.61035  1       45
siesta:      8.15774   8.15774  38.45594  1       46
siesta:      0.00000   5.43849  34.61035  1       47
siesta:      2.71925   8.15774  38.45594  1       48
siesta:      5.43849  10.87698  34.61035  1       49
siesta:      5.43849   0.00000  42.30154  1       50
siesta:      5.43849   5.43849  42.30154  1       51
siesta:     10.87698   5.43849  42.30154  1       52
siesta:      0.00000   5.43849  42.30154  1       53
siesta:      5.43849  10.87698  42.30154  1       54
siesta:      2.71925   2.71925  46.14713  1       55
siesta:      8.15774   2.71925  46.14713  1       56
siesta:      8.15774   8.15774  46.14713  1       57
siesta:      2.71925   8.15774  46.14713  1       58
siesta:      5.43849   5.43849  49.99272  1       59
siesta:      4.78333   2.16129  80.41708  4       60
siesta:      3.58019   3.43838  81.17753  2       61
siesta:      2.98451   3.41870  85.17738  1       62
siesta:      1.84653   4.90870  79.61042  3       63
siesta:      0.69590   3.61718  78.47515  4       64
siesta:      3.24609   6.55297  77.67003  3       65
siesta:      2.31961   6.91631  75.55645  5       66
siesta:      0.11745   6.53181  81.27547  3       67
siesta:     -1.18719   7.60291  80.08473  4       68
siesta:     -0.99677   5.32839  82.53613  4       69
siesta:      1.21063   7.86558  82.41866  4       70
siesta:      5.45347   7.61017  78.40433  2       71
siesta:      6.11307   7.26085  80.16713  4       72
siesta:      6.92047   9.19875  76.69286  3       73
siesta:      5.66758  10.63183  75.88932  4       74
siesta:      7.92527   7.69946  74.40489  3       75
siesta:      8.10491   8.72545  72.31378  5       76
siesta:      9.09009  10.48578  78.11419  3       77
siesta:     10.16612  11.67427  76.81109  4       78
siesta:      8.34491  11.68432  79.62602  4       79
siesta:     10.37771   9.09078  78.93847  4       80
siesta:      8.67547   5.29607  74.85555  2       81
siesta:      8.16191   4.46402  76.50561  4       82
siesta:      9.52362   3.64363  72.81512  3       83
siesta:     10.88874   4.68817  71.67265  4       84
siesta:      7.35600   2.98898  70.98501  3       85
siesta:      7.71424   2.98556  68.67444  5       86
siesta:     10.76273   1.26065  73.90139  3       87
siesta:     11.35670   0.01261  72.36433  4       88
siesta:     12.43190   1.77306  75.00992  4       89
siesta:      9.44604   0.23350  75.12152  4       90
siesta:      5.09373   2.43721  72.03445  2       91
siesta:      4.90803   2.39176  73.94754  4       92
siesta:      2.88299   1.94887  70.45868  3       93
siesta:      3.32203   0.42723  69.12929  4       94
siesta:      2.22805   4.24253  68.77971  3       95
siesta:      1.56899   3.94871  66.56210  5       96
siesta:      0.62608   1.18973  72.10702  3       97
siesta:     -1.01715   0.81063  70.91207  4       98
siesta:      1.06083  -0.52603  73.17839  4       99
siesta:      0.14276   2.70052  73.43513  4      100
siesta:      2.37616   6.54521  69.89024  2      101
siesta:      2.76835   6.68566  71.76822  4      102
siesta:      1.79528   8.83966  68.48002  3      103
siesta:     -0.02704   8.60950  67.52937  4      104
siesta:      3.69247   9.33775  66.32325  3      105
siesta:      2.97672  10.23566  64.29621  5      106
siesta:      1.68970  11.11532  70.27145  3      107
siesta:      1.22974  12.82432  69.20390  4      108
siesta:      0.23759  10.83061  71.71605  4      109
siesta:      3.51174  11.39331  71.21182  4      110
siesta:      6.15262   8.81792  66.82171  2      111
siesta:      6.67707   8.23402  68.57624  4      112
siesta:      8.10106   9.23488  64.92376  3      113
siesta:      7.79832  11.08318  64.04775  4      114
siesta:      7.97079   7.33044  62.72293  3      115
siesta:      8.66007   7.93908  60.57814  5      116
siesta:     10.72995   9.14266  66.14135  3      117
siesta:     12.17726   9.47086  64.70327  4      118
siesta:     10.90102  10.59638  67.60135  4      119
siesta:     11.06620   7.29446  67.00908  4      120
siesta:      7.18447   4.96869  63.29683  2      121
siesta:      6.69059   4.52170  65.09775  4      122
siesta:      7.11183   3.00969  61.38463  3      123
siesta:      8.96648   2.85022  60.47980  4      124
siesta:      5.20631   3.66064  59.30615  3      125
siesta:      3.25691   4.83014  59.58501  5      126
siesta:      6.37970   0.47094  62.58698  3      127
siesta:      6.33267  -1.01570  61.15326  4      128
siesta:      7.76194  -0.04324  64.03467  4      129
siesta:      4.51779   0.61532  63.47647  4      130
siesta:      5.91297   2.63058  57.08110  5      131
siesta:      2.98451   3.41870  54.40584  1      132
siesta:      5.43849   5.43849  89.59050  1      133
siesta:      2.71925   8.15774  93.43609  1      134
siesta:      8.15774   8.15774  93.43609  1      135
siesta:      8.15774   2.71925  93.43609  1      136
siesta:      2.71925   2.71925  93.43609  1      137
siesta:      5.43849  10.87698  97.28168  1      138
siesta:      0.00000   5.43849  97.28168  1      139
siesta:     10.87698   5.43849  97.28168  1      140
siesta:      5.43849   5.43849  97.28168  1      141
siesta:      5.43849   0.00000  97.28168  1      142
siesta:      5.43849  10.87698 104.97287  1      143
siesta:      2.71925   8.15774 101.12728  1      144
siesta:      0.00000   5.43849 104.97287  1      145
siesta:      8.15774   8.15774 101.12728  1      146
siesta:     10.87698   5.43849 104.97287  1      147
siesta:      8.15774   2.71925 101.12728  1      148
siesta:      2.71925   2.71925 101.12728  1      149
siesta:      5.43849   5.43849 104.97287  1      150
siesta:      5.43849   0.00000 104.97287  1      151
siesta:      5.43849  10.87698 112.66406  1      152
siesta:      2.71925   8.15774 108.81847  1      153
siesta:      0.00000   5.43849 112.66406  1      154
siesta:      8.15774   8.15774 108.81847  1      155
siesta:     10.87698   5.43849 112.66406  1      156
siesta:      8.15774   2.71925 108.81847  1      157
siesta:      2.71925   2.71925 108.81847  1      158
siesta:      5.43849   5.43849 112.66406  1      159
siesta:      5.43849   0.00000 112.66406  1      160
siesta:      2.71925   8.15774 116.50965  1      161
siesta:      8.15774   8.15774 116.50965  1      162
siesta:      8.15774   2.71925 116.50965  1      163
siesta:      2.71925   2.71925 116.50965  1      164
siesta:      5.43849  10.87698 120.35525  1      165
siesta:      0.00000   5.43849 120.35525  1      166
siesta:     10.87698   5.43849 120.35525  1      167
siesta:      5.43849   5.43849 120.35525  1      168
siesta:      5.43849   0.00000 120.35525  1      169
siesta:      5.43849  10.87698 128.04644  1      170
siesta:      2.71925   8.15774 124.20084  1      171
siesta:      0.00000   5.43849 128.04644  1      172
siesta:      8.15774   8.15774 124.20084  1      173
siesta:     10.87698   5.43849 128.04644  1      174
siesta:      8.15774   2.71925 124.20084  1      175
siesta:      2.71925   2.71925 124.20084  1      176
siesta:      5.43849   5.43849 128.04644  1      177
siesta:      5.43849   0.00000 128.04644  1      178
siesta:      5.43849  10.87698 135.73762  1      179
siesta:      2.71925   8.15774 131.89203  1      180
siesta:      0.00000   5.43849 135.73762  1      181
siesta:      8.15774   8.15774 131.89203  1      182
siesta:     10.87698   5.43849 135.73762  1      183
siesta:      8.15774   2.71925 131.89203  1      184
siesta:      2.71925   2.71925 131.89203  1      185
siesta:      5.43849   5.43849 135.73762  1      186
siesta:      5.43849   0.00000 135.73762  1      187
siesta:      2.71925   8.15774 139.58322  1      188
siesta:      8.15774   8.15774 139.58322  1      189
siesta:      8.15774   2.71925 139.58322  1      190
siesta:      2.71925   2.71925 139.58322  1      191

siesta: System type = molecule  

initatomlists: Number of atoms, orbitals, and projectors:    191  1363  1971

coxmol: Writing XMOL coordinates into file em.xyz                                                              

siesta: ******************** Simulation parameters ****************************
siesta:
siesta: The following are some of the parameters of the simulation.
siesta: A complete list of the parameters used, including default values,
siesta: can be found in file out.fdf
siesta:
redata: Spin configuration                          = collinear
redata: Number of spin components                   = 2
redata: Time-Reversal Symmetry                      = T
redata: Spin-spiral                                 = F
redata: Long output                                 =   F
redata: Number of Atomic Species                    =        5
redata: Charge density info will appear in .RHO file
redata: Write Mulliken Pop.                         = Atomic and Orbital charges
redata: Mesh Cutoff                                 =   350.0000 Ry
redata: Net charge of the system                    =     0.0000 |e|
redata: Min. number of SCF Iter                     =        0
redata: Max. number of SCF Iter                     =      300
redata: SCF mix quantity                            = Hamiltonian
redata: Mix DM or H after convergence               =   F
redata: Recompute H after scf cycle                 =   F
redata: Mix DM in first SCF step                    =   T
redata: Write Pulay info on disk                    =   F
redata: New DM Mixing Weight                        =     0.0300
redata: New DM Occupancy tolerance                  = 0.000000000001
redata: No kicks to SCF
redata: DM Mixing Weight for Kicks                  =     0.5000
redata: Require Harris convergence for SCF          =   F
redata: Harris energy tolerance for SCF             =     0.000100 eV
redata: Require DM convergence for SCF              =   T
redata: DM tolerance for SCF                        =     0.0001
redata: Require EDM convergence for SCF             =   F
redata: EDM tolerance for SCF                       =     0.001000 eV
redata: Require H convergence for SCF               =   T
redata: Hamiltonian tolerance for SCF               =     0.001000 eV
redata: Require (free) Energy convergence for SCF   =   F
redata: (free) Energy tolerance for SCF             =     0.000100 eV
redata: Antiferro initial spin density              =   F
redata: Using Saved Data (generic)                  =   F
redata: Use continuation files for DM               =   T
redata: Neglect nonoverlap interactions             =   F
redata: Method of Calculation                       = Diagonalization
redata: Divide and Conquer                          =   F
redata: Electronic Temperature                      =   299.9869 K
redata: Fix the spin of the system                  =   F
redata: Dynamics option                             = Single-point calculation
mix.SCF: Pulay mixing                            = Pulay
mix.SCF:    Variant                              = stable
mix.SCF:    History steps                        = 5
mix.SCF:    Linear mixing weight                 =     0.030000
mix.SCF:    Mixing weight                        =     0.030000
mix.SCF:    SVD condition                        = 0.1000E-07
mix.SCF: Spin-component mixing                   all
redata: ***********************************************************************

%block SCF.Mixers
  Pulay
%endblock SCF.Mixers

%block SCF.Mixer.Pulay
  # Mixing method
  method pulay
  variant stable

  # Mixing options
  weight 0.0300
  weight.linear 0.0300
  history 5
%endblock SCF.Mixer.Pulay

DM_history_depth set to one: no extrapolation allowed by default for geometry relaxation
Size of DM history Fstack: 1
Total number of electrons:  1522.000000
Total ionic charge:  1522.000000
 Kpoints in:           18 . Kpoints trimmed:           14

siesta: k-grid: Number of k-points =    14
siesta: k-grid: Cutoff (effective) =    45.000 Ang
siesta: k-grid: Supercell and displacements
siesta: k-grid:    3   0   0      0.000
siesta: k-grid:    0   3   0      0.000
siesta: k-grid:    0   0   3      0.000


                     ====================================
                        Single-point calculation
                     ====================================

outcell: Unit cell vectors (Ang):
       30.000000    0.000000    0.000000
        0.000000   30.000000    0.000000
        0.000000    0.000000   84.471707

outcell: Cell vector modules (Ang)   :   30.000000   30.000000   84.471707
outcell: Cell angles (23,13,12) (deg):     90.0000     90.0000     90.0000
outcell: Cell volume (Ang**3)        :  76024.5362
<dSpData1D:S at geom step 0
  <sparsity:sparsity for geom step 0
    nrows_g=1363 nrows=1363 sparsity=.1608 nnzs=298775, refcount: 7>
  <dData1D:(new from dSpData1D) n=298775, refcount: 1>
refcount: 1>
new_DM -- step:     1
Initializing Density Matrix...

Attempting to read DM from file... Failed...
DM filled with atomic data:
<dSpData2D:DM initialized from atoms
  <sparsity:sparsity for geom step 0
    nrows_g=1363 nrows=1363 sparsity=.1608 nnzs=298775, refcount: 8>
  <dData2D:DM n=298775 m=2, refcount: 1>
refcount: 1>

initDM: Initial spin polarization (Qup-Qdown) =  234.000000

No. of atoms with KB's overlaping orbs in proc 0. Max # of overlaps:     191     174
New grid distribution:   1
           1       1:  180    1:  180    1:  480

InitMesh: MESH =   360 x   360 x   960 =   124416000
InitMesh: (bp) =   180 x   180 x   480 =    15552000
InitMesh: Mesh cutoff (required, used) =   350.000   356.962 Ry
ExtMesh (bp) on 0 =   268 x   268 x   564 =    40508736
PhiOnMesh: Number of (b)points on node 0 =             15552000
PhiOnMesh: nlist on node 0 =             18144916

stepf: Fermi-Dirac step function

siesta: Program's energy decomposition (eV):
siesta: Ebs     =    -14235.420339
siesta: Eions   =    130205.740393
siesta: Ena     =      3113.548703
siesta: Ekin    =     88050.174827
siesta: Enl     =    -58864.128125
siesta: Eso     =         0.000000
siesta: Eldau   =         0.000000
siesta: DEna    =      -313.982384
siesta: DUscf   =       308.023351
siesta: DUext   =         0.000000
siesta: Exc     =    -19964.182192
siesta: eta*DQ  =         0.000000
siesta: Emadel  =         0.000000
siesta: Emeta   =         0.000000
siesta: Emolmec =         0.000000
siesta: Ekinion =         0.000000
siesta: Eharris =   -117393.404364
siesta: Etot    =   -117876.286214
siesta: FreeEng =   -117876.396494

        iscf     Eharris(eV)        E_KS(eV)     FreeEng(eV)     dDmax    Ef(eV) dHmax(eV)
   scf:    1  -117393.404364  -117876.286214  -117876.396494  0.965099 -1.092683 46.336921
timer: Routine,Calls,Time,% = IterSCF        1     351.333  89.55
   scf:    2  -118032.394729  -117968.551211  -117968.605646  0.588649 -1.256262 37.137755
   scf:    3  -117356.936357  -117934.103236  -117934.250182  0.394411 -1.481362 42.336843
   scf:    4  -118097.452432  -118114.554392  -118114.672610  0.341774 -1.322652 12.129382
   scf:    5  -118123.552123  -118119.494443  -118119.593713  0.060444 -1.390400  8.890360
   scf:    6  -118125.888318  -118123.033342  -118123.134997  0.076139 -1.442857  6.151278
   scf:    7  -118128.169880  -118126.416226  -118126.494279  0.074949 -1.496322  8.180662
   scf:    8  -118122.938881  -118128.690602  -118128.843043  0.328788 -1.673750 11.034735
   scf:    9  -118129.508695  -118131.882702  -118132.013343  0.321259 -1.694041  5.418945
   scf:   10  -118133.382959  -118132.715311  -118132.866029  0.026589 -1.761343  4.957000
   scf:   11  -118134.075825  -118133.564009  -118133.728688  0.048756 -1.813428  4.466407
   scf:   12  -118126.856187  -118131.747355  -118131.916248  0.100527 -1.932923  4.129293
   scf:   13  -118134.270237  -118134.226317  -118134.394020  0.092409 -1.868098  3.001987
   scf:   14  -118134.586510  -118134.582099  -118134.722420  0.077072 -2.015468  1.768403
   scf:   15  -118133.660766  -118134.514354  -118134.673722  0.074236 -2.004506  4.144681
   scf:   16  -118134.533065  -118134.757648  -118134.912481  0.077182 -1.948138  1.711926
   scf:   17  -118135.150230  -118135.034633  -118135.194774  0.034887 -2.087650  1.385337
   scf:   18  -118135.153095  -118135.114206  -118135.290712  0.010992 -2.087663  0.959225
   scf:   19  -118135.169437  -118135.165580  -118135.362726  0.016327 -2.078945  0.588855
   scf:   20  -118135.173395  -118135.180264  -118135.380200  0.005142 -2.071618  0.676524
   scf:   21  -118135.176724  -118135.218872  -118135.447921  0.030761 -2.081792  0.576324
   scf:   22  -118135.212723  -118135.237945  -118135.458291  0.014756 -2.084958  0.274094
   scf:   23  -118135.237654  -118135.244263  -118135.479841  0.016420 -2.087852  0.253436
   scf:   24  -118135.256065  -118135.252030  -118135.494106  0.007102 -2.086604  0.156135
   scf:   25  -118135.252661  -118135.252522  -118135.498052  0.003078 -2.085358  0.136539
   scf:   26  -118135.252916  -118135.253643  -118135.505902  0.006428 -2.080009  0.159145
   scf:   27  -118135.254294  -118135.254442  -118135.510763  0.005053 -2.074762  0.093183
   scf:   28  -118135.254940  -118135.254865  -118135.512904  0.002099 -2.072162  0.097850
   scf:   29  -118135.255197  -118135.255030  -118135.514607  0.001946 -2.071251  0.093782
   scf:   30  -118135.255363  -118135.255192  -118135.517088  0.003420 -2.070269  0.074706
   scf:   31  -118135.255372  -118135.255249  -118135.519684  0.004381 -2.070088  0.049742
   scf:   32  -118135.255024  -118135.255128  -118135.520551  0.001742 -2.069928  0.044005
   scf:   33  -118135.254485  -118135.254791  -118135.521675  0.002392 -2.069497  0.041259
   scf:   34  -118135.254320  -118135.254561  -118135.522161  0.001327 -2.069176  0.037257
   scf:   35  -118135.254358  -118135.254459  -118135.522439  0.000823 -2.069148  0.033972
   scf:   36  -118135.254070  -118135.254258  -118135.522876  0.001416 -2.069102  0.025209
   scf:   37  -118135.254001  -118135.254122  -118135.523272  0.001459 -2.069247  0.022554
   scf:   38  -118135.254015  -118135.254064  -118135.523493  0.000901 -2.069340  0.020036
   scf:   39  -118135.253782  -118135.253888  -118135.523985  0.002554 -2.069521  0.011713
   scf:   40  -118135.253831  -118135.253856  -118135.524116  0.000884 -2.069572  0.012255
   scf:   41  -118135.253775  -118135.253815  -118135.524192  0.000640 -2.069601  0.007646
   scf:   42  -118135.253885  -118135.253842  -118135.524321  0.001326 -2.069741  0.005184
   scf:   43  -118135.253933  -118135.253887  -118135.524357  0.000465 -2.069801  0.005623
   scf:   44  -118135.254114  -118135.253999  -118135.524407  0.000816 -2.069925  0.003194
   scf:   45  -118135.254002  -118135.254000  -118135.524421  0.000258 -2.069953  0.002552
   scf:   46  -118135.253968  -118135.253983  -118135.524445  0.000487 -2.070000  0.002702
   scf:   47  -118135.253974  -118135.253978  -118135.524463  0.000476 -2.070044  0.001569
   scf:   48  -118135.253985  -118135.253981  -118135.524469  0.000163 -2.070059  0.001481
   scf:   49  -118135.254018  -118135.253999  -118135.524478  0.000350 -2.070089  0.001268
   scf:   50  -118135.254035  -118135.254017  -118135.524484  0.000217 -2.070105  0.001176
   scf:   51  -118135.254032  -118135.254025  -118135.524487  0.000141 -2.070114  0.001224
   scf:   52  -118135.254031  -118135.254027  -118135.524492  0.000284 -2.070129  0.000838
   scf:   53  -118135.254027  -118135.254027  -118135.524494  0.000146 -2.070134  0.000765
   scf:   54  -118135.254030  -118135.254028  -118135.524495  0.000079 -2.070137  0.000717

SCF Convergence by DM+H criterion
max |DM_out - DM_in|         :     0.0000786219
max |H_out - H_in|      (eV) :     0.0007171265
SCF cycle converged after 54 iterations

Using DM_out to compute the final energy and forces
No. of atoms with KB's overlaping orbs in proc 0. Max # of overlaps:     191     174

siesta: E_KS(eV) =          -118135.2540

siesta: E_KS - E_eggbox =   -118135.2540

siesta: Total spin polarization (Qup-Qdown) =    0.053358

siesta: Atomic forces (eV/Ang):
----------------------------------------
   Tot    0.058464    0.023170   -0.028927
----------------------------------------
   Max    3.153850
   Res    0.666217    sqrt( Sum f_i^2 / 3N )
----------------------------------------
   Max    3.153850    constrained

Stress-tensor-Voigt (kbar):       -2.86       -2.80       -2.64        0.02        0.04       -0.04
(Free)E + p*V (eV/cell)  -118004.2590
Target enthalpy (eV/cell)  -118135.5245

mulliken: Atomic and Orbital Populations:

mulliken: Spin UP 

Species: Au                  
Atom  Qatom  Qorb
               6s      5dxy    5dyz    5dz2    5dxz    5dx2-y2 
   1  5.502   0.569   0.989   0.985   0.993   0.985   0.982
   2  5.501   0.567   0.989   0.985   0.993   0.985   0.982
   3  5.501   0.567   0.989   0.985   0.993   0.985   0.982
   4  5.501   0.567   0.989   0.985   0.993   0.985   0.982
   5  5.522   0.596   0.992   0.992   0.991   0.967   0.985
   6  5.432   0.511   0.983   0.980   0.985   0.981   0.991
   7  5.483   0.574   0.983   0.975   0.991   0.975   0.985
   8  5.482   0.574   0.983   0.975   0.991   0.975   0.985
   9  5.522   0.596   0.992   0.967   0.991   0.992   0.985
  10  5.483   0.575   0.983   0.975   0.991   0.975   0.985
  11  5.522   0.596   0.992   0.967   0.991   0.992   0.985
  12  5.482   0.574   0.983   0.975   0.991   0.975   0.985
  13  5.522   0.596   0.992   0.992   0.991   0.967   0.985
  14  5.514   0.591   0.993   0.987   0.993   0.966   0.986
  15  5.471   0.548   0.988   0.979   0.987   0.980   0.988
  16  5.493   0.584   0.985   0.974   0.992   0.974   0.985
  17  5.495   0.585   0.984   0.974   0.992   0.974   0.985
  18  5.513   0.590   0.993   0.965   0.993   0.987   0.986
  19  5.497   0.588   0.984   0.974   0.992   0.974   0.984
  20  5.514   0.591   0.993   0.965   0.993   0.987   0.986
  21  5.494   0.585   0.984   0.974   0.992   0.974   0.985
  22  5.514   0.590   0.993   0.987   0.993   0.965   0.986
  23  5.517   0.593   0.992   0.989   0.992   0.965   0.986
  24  5.465   0.545   0.987   0.979   0.985   0.979   0.990
  25  5.517   0.593   0.992   0.965   0.992   0.989   0.986
  26  5.517   0.593   0.992   0.965   0.992   0.989   0.986
  27  5.517   0.593   0.992   0.989   0.992   0.965   0.986
  28  5.487   0.575   0.985   0.975   0.992   0.975   0.984
  29  5.485   0.573   0.985   0.976   0.992   0.975   0.985
  30  5.485   0.573   0.985   0.975   0.992   0.975   0.984
  31  5.485   0.573   0.985   0.975   0.992   0.976   0.985
  32  5.525   0.603   0.992   0.987   0.992   0.965   0.986
  33  5.471   0.549   0.987   0.979   0.987   0.979   0.991
  34  5.493   0.584   0.984   0.974   0.992   0.974   0.985
  35  5.488   0.579   0.984   0.975   0.992   0.974   0.985
  36  5.526   0.605   0.992   0.965   0.993   0.986   0.986
  37  5.489   0.579   0.984   0.975   0.992   0.975   0.985
  38  5.524   0.602   0.992   0.965   0.992   0.987   0.986
  39  5.489   0.580   0.984   0.974   0.992   0.975   0.985
  40  5.526   0.605   0.992   0.986   0.993   0.965   0.986
  41  5.507   0.583   0.992   0.990   0.992   0.965   0.985
  42  5.456   0.534   0.988   0.980   0.986   0.980   0.988
  43  5.490   0.580   0.984   0.974   0.992   0.974   0.985
  44  5.488   0.579   0.984   0.974   0.992   0.974   0.985
  45  5.508   0.583   0.992   0.966   0.992   0.990   0.985
  46  5.491   0.581   0.984   0.974   0.992   0.974   0.985
  47  5.507   0.582   0.992   0.965   0.992   0.990   0.985
  48  5.487   0.578   0.984   0.974   0.992   0.974   0.985
  49  5.508   0.584   0.992   0.989   0.992   0.966   0.985
  50  5.528   0.604   0.991   0.989   0.991   0.968   0.984
  51  5.439   0.513   0.983   0.981   0.990   0.982   0.991
  52  5.523   0.599   0.991   0.967   0.991   0.990   0.984
  53  5.530   0.607   0.991   0.967   0.991   0.989   0.984
  54  5.524   0.601   0.991   0.990   0.991   0.968   0.984
  55  5.479   0.548   0.991   0.983   0.988   0.983   0.984
  56  5.464   0.534   0.991   0.982   0.989   0.984   0.985
  57  5.474   0.546   0.990   0.982   0.989   0.982   0.984
  58  5.468   0.537   0.991   0.984   0.989   0.982   0.985
  59  5.521   0.600   0.976   0.976   0.995   0.974   1.000
  62  5.372   0.494   0.993   0.984   0.931   0.978   0.991
 132  5.321   0.407   0.992   0.991   0.985   0.956   0.989
 133  5.558   0.641   0.975   0.975   0.995   0.972   1.000
 134  5.473   0.542   0.991   0.984   0.988   0.983   0.986
 135  5.494   0.567   0.989   0.982   0.989   0.983   0.984
 136  5.478   0.547   0.990   0.982   0.988   0.984   0.986
 137  5.477   0.547   0.991   0.984   0.988   0.983   0.984
 138  5.519   0.594   0.991   0.991   0.991   0.968   0.984
 139  5.525   0.601   0.991   0.968   0.991   0.990   0.984
 140  5.518   0.593   0.991   0.968   0.991   0.991   0.984
 141  5.437   0.510   0.983   0.982   0.988   0.982   0.991
 142  5.525   0.601   0.991   0.990   0.991   0.968   0.984
 143  5.511   0.587   0.992   0.988   0.992   0.966   0.985
 144  5.491   0.582   0.984   0.974   0.992   0.974   0.985
 145  5.508   0.583   0.992   0.965   0.992   0.989   0.985
 146  5.492   0.583   0.984   0.974   0.992   0.974   0.985
 147  5.511   0.587   0.992   0.966   0.992   0.988   0.985
 148  5.490   0.581   0.984   0.974   0.992   0.974   0.985
 149  5.494   0.585   0.984   0.974   0.992   0.974   0.985
 150  5.459   0.536   0.988   0.980   0.986   0.980   0.988
 151  5.509   0.584   0.992   0.989   0.992   0.965   0.985
 152  5.527   0.605   0.992   0.986   0.992   0.965   0.986
 153  5.488   0.579   0.984   0.974   0.991   0.975   0.985
 154  5.523   0.601   0.992   0.965   0.992   0.987   0.986
 155  5.486   0.577   0.984   0.975   0.991   0.975   0.985
 156  5.527   0.606   0.992   0.965   0.992   0.986   0.986
 157  5.487   0.578   0.984   0.975   0.991   0.974   0.985
 158  5.494   0.586   0.984   0.974   0.991   0.974   0.985
 159  5.471   0.548   0.987   0.979   0.987   0.979   0.991
 160  5.524   0.602   0.992   0.987   0.992   0.965   0.986
 161  5.487   0.575   0.985   0.975   0.992   0.976   0.985
 162  5.487   0.574   0.985   0.975   0.992   0.975   0.985
 163  5.487   0.574   0.985   0.976   0.992   0.975   0.985
 164  5.489   0.577   0.985   0.975   0.992   0.975   0.985
 165  5.517   0.593   0.992   0.989   0.992   0.965   0.986
 166  5.517   0.593   0.992   0.965   0.992   0.989   0.986
 167  5.517   0.593   0.992   0.965   0.992   0.989   0.986
 168  5.466   0.546   0.987   0.979   0.985   0.979   0.991
 169  5.517   0.593   0.992   0.989   0.992   0.965   0.986
 170  5.513   0.590   0.993   0.987   0.993   0.966   0.986
 171  5.494   0.584   0.984   0.974   0.992   0.974   0.985
 172  5.515   0.592   0.993   0.966   0.993   0.986   0.986
 173  5.497   0.589   0.984   0.974   0.992   0.974   0.984
 174  5.513   0.589   0.993   0.965   0.993   0.987   0.986
 175  5.494   0.585   0.984   0.974   0.992   0.974   0.985
 176  5.491   0.581   0.985   0.974   0.992   0.974   0.985
 177  5.473   0.550   0.988   0.980   0.987   0.980   0.988
 178  5.515   0.592   0.993   0.986   0.993   0.966   0.986
 179  5.520   0.594   0.992   0.992   0.991   0.967   0.985
 180  5.484   0.575   0.983   0.975   0.991   0.975   0.985
 181  5.521   0.595   0.992   0.967   0.991   0.992   0.985
 182  5.486   0.577   0.983   0.975   0.991   0.975   0.985
 183  5.520   0.594   0.992   0.967   0.991   0.992   0.985
 184  5.484   0.576   0.983   0.975   0.991   0.975   0.985
 185  5.482   0.574   0.983   0.975   0.991   0.975   0.985
 186  5.432   0.511   0.983   0.981   0.985   0.981   0.992
 187  5.521   0.595   0.992   0.992   0.991   0.967   0.985
 188  5.502   0.569   0.989   0.985   0.993   0.985   0.982
 189  5.499   0.565   0.990   0.985   0.993   0.985   0.982
 190  5.502   0.568   0.989   0.985   0.993   0.985   0.982
 191  5.504   0.571   0.989   0.985   0.993   0.985   0.982

Species: N                   
Atom  Qatom  Qorb
               2s      2s      2py     2pz     2px     2py     2pz     2px     
               2Pdxy   2Pdyz   2Pdz2   2Pdxz   2Pdx2-y2
  61  2.482   0.361   0.231   0.540   0.514   0.515   0.112   0.066   0.118
              0.005   0.007   0.003   0.007   0.003
  71  2.222   0.148   0.356   0.447   0.178   0.273   0.186   0.322   0.274
              0.008   0.006   0.009   0.008   0.008
  81  2.236   0.150   0.355   0.194   0.194   0.547   0.310   0.306   0.141
              0.008   0.010   0.009   0.005   0.007
  91  2.226   0.148   0.356   0.578   0.119   0.211   0.128   0.350   0.297
              0.009   0.004   0.011   0.009   0.008
 101  2.231   0.152   0.352   0.193   0.161   0.572   0.300   0.334   0.129
              0.009   0.009   0.009   0.003   0.008
 111  2.231   0.152   0.352   0.552   0.188   0.186   0.143   0.313   0.308
              0.008   0.004   0.009   0.009   0.008
 121  2.221   0.139   0.358   0.201   0.162   0.554   0.301   0.327   0.142
              0.008   0.009   0.009   0.004   0.007

Species: C                   
Atom  Qatom  Qorb
               2s      2s      2py     2pz     2px     2py     2pz     2px     
               2Pdxy   2Pdyz   2Pdz2   2Pdxz   2Pdx2-y2
  63  1.886   0.134   0.313   0.195   0.225   0.221   0.240   0.221   0.223
              0.019   0.028   0.015   0.028   0.023
  65  2.171   0.379   0.184   0.335   0.322   0.329   0.109   0.188   0.138
              0.023   0.042   0.042   0.050   0.030
  67  1.699  -0.023   0.395   0.115   0.116   0.128   0.312   0.306   0.304
              0.010   0.013   0.004   0.013   0.005
  73  1.895   0.142   0.312   0.196   0.241   0.198   0.247   0.208   0.245
              0.019   0.025   0.018   0.026   0.018
  75  2.170   0.376   0.182   0.324   0.311   0.352   0.153   0.200   0.084
              0.030   0.051   0.046   0.035   0.026
  77  1.692  -0.025   0.393   0.105   0.102   0.142   0.323   0.322   0.288
              0.010   0.012   0.004   0.010   0.006
  83  1.891   0.140   0.314   0.214   0.220   0.196   0.227   0.216   0.260
              0.019   0.027   0.016   0.027   0.016
  85  2.176   0.377   0.180   0.360   0.332   0.304   0.077   0.188   0.170
              0.024   0.041   0.038   0.070   0.015
  87  1.693  -0.025   0.393   0.159   0.092   0.103   0.275   0.332   0.324
              0.008   0.011   0.003   0.011   0.008
  93  1.890   0.141   0.314   0.183   0.197   0.247   0.276   0.247   0.180
              0.021   0.026   0.014   0.025   0.018
  95  2.178   0.376   0.181   0.300   0.331   0.368   0.175   0.180   0.079
              0.029   0.070   0.040   0.035   0.016
  97  1.695  -0.023   0.392   0.087   0.122   0.152   0.338   0.306   0.281
              0.006   0.013   0.003   0.010   0.008
 103  1.889   0.142   0.313   0.253   0.221   0.150   0.174   0.230   0.302
              0.020   0.026   0.017   0.023   0.019
 105  2.182   0.380   0.178   0.375   0.321   0.312   0.078   0.188   0.163
              0.036   0.025   0.044   0.058   0.024
 107  1.693  -0.025   0.393   0.152   0.126   0.079   0.281   0.302   0.343
              0.006   0.009   0.004   0.014   0.008
 113  1.888   0.140   0.313   0.145   0.236   0.243   0.306   0.207   0.192
              0.018   0.025   0.018   0.026   0.017
 115  2.181   0.380   0.178   0.314   0.318   0.375   0.159   0.197   0.074
              0.029   0.061   0.043   0.030   0.023
 117  1.692  -0.026   0.394   0.077   0.097   0.180   0.343   0.327   0.258
              0.007   0.011   0.003   0.011   0.008
 123  1.882   0.137   0.314   0.248   0.230   0.129   0.191   0.211   0.314
              0.017   0.027   0.018   0.027   0.019
 125  2.222   0.384   0.179   0.364   0.337   0.346   0.096   0.151   0.158
              0.028   0.039   0.038   0.062   0.039
 127  1.690  -0.027   0.395   0.168   0.099   0.085   0.266   0.325   0.339
              0.006   0.012   0.003   0.010   0.010

Species: H                   
Atom  Qatom  Qorb
               1s      1s      1Ppy    1Ppz    1Ppx    
  60  0.658   0.346   0.185   0.046   0.036   0.045
  64  0.611   0.381   0.176   0.017   0.019   0.018
  68  0.606   0.391   0.162   0.018   0.017   0.018
  69  0.623   0.415   0.145   0.020   0.022   0.021
  70  0.622   0.413   0.149   0.020   0.021   0.019
  72  0.631   0.304   0.212   0.045   0.041   0.030
  74  0.599   0.353   0.193   0.017   0.017   0.020
  78  0.597   0.375   0.170   0.017   0.017   0.017
  79  0.601   0.383   0.166   0.018   0.018   0.017
  80  0.606   0.386   0.165   0.017   0.020   0.018
  82  0.622   0.287   0.225   0.028   0.038   0.044
  84  0.599   0.350   0.195   0.021   0.017   0.016
  88  0.596   0.374   0.170   0.017   0.016   0.018
  89  0.602   0.385   0.165   0.017   0.018   0.017
  90  0.606   0.386   0.166   0.017   0.019   0.017
  92  0.621   0.287   0.227   0.045   0.037   0.025
  94  0.603   0.362   0.187   0.016   0.020   0.018
  98  0.598   0.378   0.169   0.019   0.017   0.016
  99  0.606   0.391   0.162   0.017   0.018   0.018
 100  0.608   0.373   0.175   0.021   0.021   0.018
 102  0.659   0.293   0.228   0.027   0.063   0.048
 104  0.607   0.369   0.183   0.019   0.020   0.016
 108  0.602   0.385   0.165   0.016   0.017   0.019
 109  0.607   0.391   0.162   0.018   0.018   0.017
 110  0.610   0.380   0.172   0.019   0.020   0.020
 112  0.655   0.290   0.232   0.049   0.055   0.030
 114  0.610   0.372   0.182   0.017   0.018   0.022
 118  0.605   0.388   0.164   0.019   0.018   0.017
 119  0.609   0.394   0.160   0.017   0.019   0.018
 120  0.610   0.384   0.170   0.018   0.020   0.019
 122  0.659   0.294   0.230   0.031   0.056   0.048
 124  0.615   0.375   0.181   0.020   0.021   0.019
 128  0.611   0.396   0.160   0.017   0.018   0.020
 129  0.611   0.396   0.160   0.018   0.020   0.017
 130  0.609   0.380   0.170   0.019   0.021   0.018

Species: O                   
Atom  Qatom  Qorb
               2s      2s      2py     2pz     2px     2py     2pz     2px     
               2Pdxy   2Pdyz   2Pdz2   2Pdxz   2Pdx2-y2
  66  2.951   0.527   0.225   0.722   0.489   0.773   0.026   0.154   0.018
              0.001   0.005   0.006   0.005   0.001
  76  2.949   0.528   0.227   0.788   0.525   0.678   0.019   0.135   0.031
              0.001   0.005   0.006   0.005   0.001
  86  2.945   0.528   0.226   0.661   0.479   0.837   0.036   0.155   0.005
              0.000   0.007   0.007   0.004   0.000
  96  2.975   0.540   0.220   0.853   0.565   0.650  -0.001   0.095   0.031
              0.001   0.004   0.007   0.007   0.001
 106  2.981   0.531   0.225   0.647   0.617   0.841   0.032   0.070   0.000
              0.001   0.006   0.006   0.004   0.001
 116  2.997   0.538   0.219   0.846   0.617   0.674  -0.006   0.070   0.021
              0.001   0.004   0.006   0.006   0.001
 126  2.969   0.517   0.232   0.650   0.818   0.608   0.044   0.007   0.072
              0.005   0.001   0.003   0.004   0.006
 131  3.065   0.643   0.156   0.828   0.598   0.835  -0.027   0.049  -0.033
              0.001   0.004   0.005   0.003   0.002

mulliken: Qtot =      761.027

mulliken: Spin DOWN 

Species: Au                  
Atom  Qatom  Qorb
               6s      5dxy    5dyz    5dz2    5dxz    5dx2-y2 
   1  5.502   0.568   0.989   0.985   0.993   0.985   0.982
   2  5.500   0.566   0.989   0.985   0.993   0.985   0.982
   3  5.501   0.567   0.989   0.985   0.993   0.985   0.982
   4  5.500   0.566   0.989   0.985   0.993   0.985   0.982
   5  5.522   0.596   0.991   0.992   0.991   0.967   0.985
   6  5.432   0.511   0.983   0.980   0.985   0.980   0.991
   7  5.482   0.574   0.983   0.975   0.991   0.975   0.985
   8  5.481   0.572   0.983   0.975   0.991   0.975   0.985
   9  5.521   0.596   0.992   0.967   0.991   0.992   0.985
  10  5.482   0.573   0.983   0.975   0.991   0.975   0.985
  11  5.522   0.596   0.991   0.967   0.991   0.992   0.985
  12  5.481   0.573   0.983   0.975   0.991   0.975   0.985
  13  5.522   0.596   0.992   0.992   0.991   0.967   0.985
  14  5.514   0.591   0.993   0.987   0.993   0.966   0.986
  15  5.470   0.548   0.988   0.979   0.987   0.980   0.988
  16  5.493   0.583   0.984   0.974   0.992   0.974   0.985
  17  5.494   0.585   0.984   0.974   0.992   0.974   0.985
  18  5.513   0.590   0.993   0.965   0.993   0.987   0.986
  19  5.497   0.587   0.984   0.974   0.992   0.974   0.984
  20  5.514   0.591   0.993   0.965   0.993   0.987   0.986
  21  5.494   0.584   0.984   0.974   0.992   0.974   0.985
  22  5.513   0.590   0.993   0.987   0.993   0.965   0.986
  23  5.517   0.593   0.992   0.989   0.992   0.965   0.986
  24  5.464   0.544   0.987   0.979   0.985   0.979   0.990
  25  5.516   0.593   0.992   0.965   0.992   0.989   0.986
  26  5.516   0.593   0.992   0.965   0.992   0.989   0.986
  27  5.516   0.593   0.992   0.989   0.992   0.965   0.986
  28  5.487   0.575   0.984   0.975   0.992   0.975   0.984
  29  5.485   0.573   0.985   0.976   0.992   0.975   0.985
  30  5.485   0.573   0.985   0.975   0.992   0.975   0.984
  31  5.485   0.573   0.985   0.975   0.992   0.976   0.985
  32  5.524   0.603   0.992   0.987   0.992   0.965   0.986
  33  5.471   0.548   0.987   0.979   0.987   0.979   0.991
  34  5.492   0.584   0.984   0.974   0.992   0.974   0.985
  35  5.488   0.578   0.984   0.975   0.992   0.974   0.985
  36  5.525   0.604   0.992   0.965   0.993   0.986   0.986
  37  5.488   0.579   0.984   0.975   0.992   0.975   0.985
  38  5.524   0.602   0.992   0.965   0.992   0.987   0.986
  39  5.488   0.579   0.984   0.974   0.992   0.975   0.985
  40  5.525   0.604   0.992   0.986   0.993   0.965   0.986
  41  5.507   0.583   0.992   0.990   0.992   0.965   0.985
  42  5.456   0.534   0.987   0.980   0.986   0.980   0.988
  43  5.489   0.579   0.984   0.974   0.992   0.974   0.985
  44  5.487   0.578   0.984   0.974   0.992   0.974   0.985
  45  5.507   0.583   0.992   0.965   0.992   0.990   0.985
  46  5.490   0.581   0.984   0.974   0.992   0.974   0.985
  47  5.507   0.582   0.992   0.965   0.992   0.990   0.985
  48  5.486   0.576   0.984   0.974   0.992   0.974   0.985
  49  5.508   0.583   0.992   0.989   0.992   0.966   0.985
  50  5.527   0.604   0.991   0.989   0.991   0.968   0.984
  51  5.439   0.513   0.983   0.981   0.990   0.982   0.991
  52  5.523   0.599   0.991   0.967   0.991   0.990   0.984
  53  5.529   0.606   0.991   0.967   0.991   0.989   0.984
  54  5.524   0.601   0.991   0.990   0.991   0.967   0.984
  55  5.478   0.548   0.991   0.983   0.988   0.983   0.984
  56  5.463   0.533   0.991   0.982   0.989   0.984   0.985
  57  5.473   0.546   0.990   0.982   0.989   0.982   0.984
  58  5.467   0.537   0.991   0.984   0.989   0.982   0.985
  59  5.521   0.600   0.976   0.976   0.995   0.974   1.000
  62  5.372   0.494   0.993   0.984   0.931   0.978   0.991
 132  5.321   0.407   0.992   0.991   0.985   0.956   0.989
 133  5.558   0.641   0.975   0.975   0.995   0.972   1.000
 134  5.473   0.542   0.991   0.984   0.988   0.983   0.986
 135  5.494   0.567   0.989   0.982   0.989   0.983   0.984
 136  5.477   0.546   0.990   0.982   0.988   0.984   0.986
 137  5.477   0.546   0.991   0.984   0.988   0.983   0.984
 138  5.519   0.594   0.991   0.991   0.991   0.968   0.984
 139  5.525   0.601   0.991   0.968   0.991   0.990   0.984
 140  5.518   0.593   0.991   0.968   0.991   0.991   0.984
 141  5.436   0.510   0.983   0.982   0.988   0.982   0.991
 142  5.525   0.601   0.991   0.990   0.991   0.968   0.984
 143  5.511   0.587   0.992   0.988   0.992   0.966   0.985
 144  5.490   0.581   0.984   0.974   0.992   0.974   0.985
 145  5.508   0.583   0.992   0.965   0.992   0.989   0.985
 146  5.491   0.582   0.984   0.974   0.992   0.974   0.985
 147  5.511   0.587   0.992   0.966   0.992   0.988   0.985
 148  5.490   0.580   0.984   0.974   0.992   0.974   0.985
 149  5.493   0.584   0.984   0.974   0.992   0.974   0.985
 150  5.458   0.535   0.988   0.980   0.986   0.980   0.988
 151  5.508   0.584   0.992   0.989   0.992   0.965   0.985
 152  5.526   0.605   0.992   0.986   0.992   0.965   0.986
 153  5.487   0.578   0.984   0.974   0.991   0.975   0.985
 154  5.523   0.601   0.992   0.965   0.992   0.987   0.986
 155  5.486   0.577   0.984   0.975   0.991   0.975   0.985
 156  5.527   0.606   0.992   0.965   0.992   0.986   0.986
 157  5.487   0.577   0.984   0.975   0.991   0.974   0.985
 158  5.494   0.585   0.984   0.974   0.991   0.974   0.985
 159  5.471   0.548   0.987   0.979   0.987   0.979   0.991
 160  5.523   0.601   0.992   0.987   0.992   0.965   0.986
 161  5.487   0.574   0.985   0.975   0.992   0.976   0.985
 162  5.487   0.574   0.985   0.975   0.992   0.975   0.985
 163  5.487   0.574   0.985   0.976   0.992   0.975   0.985
 164  5.489   0.577   0.985   0.975   0.992   0.975   0.985
 165  5.517   0.593   0.992   0.989   0.992   0.965   0.986
 166  5.517   0.593   0.992   0.965   0.992   0.989   0.986
 167  5.516   0.593   0.992   0.965   0.992   0.989   0.986
 168  5.466   0.545   0.987   0.979   0.985   0.979   0.991
 169  5.517   0.593   0.992   0.989   0.992   0.965   0.986
 170  5.513   0.589   0.993   0.987   0.993   0.966   0.986
 171  5.493   0.584   0.984   0.974   0.992   0.974   0.985
 172  5.515   0.592   0.993   0.966   0.993   0.986   0.986
 173  5.497   0.588   0.984   0.974   0.992   0.974   0.984
 174  5.513   0.589   0.993   0.965   0.993   0.987   0.986
 175  5.494   0.584   0.984   0.974   0.992   0.974   0.985
 176  5.491   0.581   0.985   0.974   0.992   0.974   0.985
 177  5.473   0.550   0.988   0.980   0.987   0.980   0.988
 178  5.515   0.592   0.993   0.986   0.993   0.966   0.986
 179  5.520   0.594   0.992   0.992   0.991   0.967   0.985
 180  5.483   0.574   0.983   0.975   0.991   0.975   0.985
 181  5.521   0.595   0.992   0.967   0.991   0.992   0.985
 182  5.485   0.577   0.983   0.975   0.991   0.975   0.985
 183  5.520   0.593   0.992   0.967   0.991   0.992   0.985
 184  5.484   0.575   0.983   0.975   0.991   0.975   0.985
 185  5.482   0.573   0.983   0.975   0.991   0.975   0.985
 186  5.432   0.511   0.983   0.981   0.985   0.981   0.992
 187  5.521   0.595   0.992   0.992   0.991   0.967   0.985
 188  5.502   0.568   0.989   0.985   0.993   0.985   0.982
 189  5.499   0.565   0.990   0.985   0.993   0.985   0.982
 190  5.501   0.567   0.989   0.985   0.993   0.985   0.982
 191  5.504   0.570   0.989   0.985   0.993   0.985   0.982

Species: N                   
Atom  Qatom  Qorb
               2s      2s      2py     2pz     2px     2py     2pz     2px     
               2Pdxy   2Pdyz   2Pdz2   2Pdxz   2Pdx2-y2
  61  2.482   0.361   0.231   0.540   0.514   0.515   0.112   0.067   0.118
              0.005   0.007   0.003   0.007   0.003
  71  2.223   0.148   0.356   0.447   0.178   0.273   0.186   0.322   0.274
              0.008   0.006   0.009   0.008   0.008
  81  2.236   0.150   0.355   0.194   0.194   0.547   0.310   0.306   0.141
              0.008   0.010   0.009   0.005   0.007
  91  2.226   0.148   0.356   0.578   0.119   0.211   0.128   0.350   0.297
              0.009   0.004   0.011   0.009   0.008
 101  2.231   0.152   0.352   0.193   0.161   0.572   0.300   0.334   0.129
              0.009   0.009   0.009   0.003   0.008
 111  2.231   0.152   0.352   0.552   0.188   0.186   0.143   0.313   0.308
              0.008   0.004   0.009   0.009   0.008
 121  2.221   0.139   0.358   0.201   0.162   0.554   0.301   0.327   0.142
              0.008   0.009   0.009   0.004   0.007

Species: C                   
Atom  Qatom  Qorb
               2s      2s      2py     2pz     2px     2py     2pz     2px     
               2Pdxy   2Pdyz   2Pdz2   2Pdxz   2Pdx2-y2
  63  1.886   0.134   0.313   0.195   0.225   0.221   0.240   0.221   0.223
              0.019   0.028   0.015   0.028   0.023
  65  2.171   0.379   0.184   0.335   0.322   0.329   0.109   0.188   0.138
              0.023   0.042   0.042   0.050   0.030
  67  1.699  -0.023   0.395   0.115   0.116   0.128   0.312   0.306   0.304
              0.010   0.013   0.004   0.013   0.005
  73  1.895   0.142   0.312   0.196   0.241   0.198   0.247   0.208   0.245
              0.019   0.025   0.018   0.026   0.018
  75  2.170   0.376   0.182   0.324   0.311   0.352   0.153   0.200   0.084
              0.030   0.051   0.046   0.035   0.026
  77  1.692  -0.025   0.393   0.105   0.102   0.142   0.323   0.322   0.288
              0.010   0.012   0.004   0.010   0.006
  83  1.891   0.140   0.314   0.214   0.220   0.196   0.227   0.216   0.260
              0.019   0.027   0.016   0.027   0.016
  85  2.176   0.377   0.180   0.360   0.332   0.304   0.077   0.188   0.170
              0.024   0.041   0.038   0.070   0.015
  87  1.693  -0.025   0.393   0.159   0.092   0.103   0.275   0.332   0.324
              0.008   0.011   0.003   0.011   0.008
  93  1.890   0.141   0.314   0.183   0.196   0.247   0.276   0.247   0.180
              0.021   0.026   0.014   0.025   0.018
  95  2.178   0.376   0.181   0.300   0.331   0.368   0.175   0.180   0.079
              0.029   0.070   0.040   0.035   0.016
  97  1.695  -0.023   0.392   0.087   0.122   0.152   0.338   0.306   0.281
              0.006   0.013   0.003   0.010   0.008
 103  1.889   0.142   0.313   0.253   0.221   0.150   0.174   0.230   0.302
              0.020   0.026   0.017   0.023   0.019
 105  2.182   0.380   0.178   0.375   0.321   0.312   0.078   0.188   0.163
              0.036   0.025   0.044   0.058   0.024
 107  1.693  -0.025   0.393   0.152   0.126   0.079   0.281   0.302   0.343
              0.006   0.009   0.004   0.014   0.008
 113  1.888   0.140   0.313   0.145   0.236   0.243   0.306   0.207   0.192
              0.018   0.025   0.018   0.026   0.017
 115  2.181   0.380   0.178   0.314   0.318   0.375   0.159   0.197   0.074
              0.029   0.061   0.043   0.030   0.023
 117  1.692  -0.026   0.394   0.077   0.097   0.180   0.343   0.327   0.258
              0.007   0.011   0.003   0.011   0.008
 123  1.882   0.137   0.314   0.248   0.230   0.129   0.191   0.211   0.314
              0.017   0.027   0.018   0.027   0.019
 125  2.222   0.384   0.179   0.364   0.337   0.346   0.096   0.151   0.158
              0.028   0.039   0.038   0.062   0.039
 127  1.690  -0.027   0.395   0.168   0.098   0.085   0.266   0.325   0.339
              0.006   0.012   0.003   0.010   0.010

Species: H                   
Atom  Qatom  Qorb
               1s      1s      1Ppy    1Ppz    1Ppx    
  60  0.658   0.346   0.185   0.046   0.036   0.045
  64  0.611   0.381   0.176   0.017   0.019   0.018
  68  0.606   0.391   0.162   0.018   0.017   0.018
  69  0.623   0.415   0.145   0.020   0.022   0.021
  70  0.622   0.413   0.149   0.020   0.021   0.019
  72  0.631   0.304   0.212   0.045   0.041   0.030
  74  0.599   0.353   0.193   0.017   0.017   0.020
  78  0.597   0.375   0.170   0.017   0.017   0.017
  79  0.601   0.383   0.166   0.018   0.018   0.017
  80  0.606   0.386   0.165   0.017   0.020   0.018
  82  0.622   0.287   0.225   0.028   0.038   0.044
  84  0.599   0.350   0.195   0.021   0.017   0.016
  88  0.596   0.374   0.170   0.017   0.016   0.018
  89  0.602   0.385   0.165   0.017   0.018   0.017
  90  0.606   0.386   0.166   0.017   0.019   0.017
  92  0.621   0.287   0.227   0.045   0.037   0.025
  94  0.603   0.362   0.187   0.016   0.020   0.018
  98  0.598   0.378   0.169   0.019   0.017   0.016
  99  0.606   0.391   0.162   0.017   0.018   0.018
 100  0.608   0.373   0.175   0.021   0.021   0.018
 102  0.659   0.293   0.228   0.027   0.063   0.048
 104  0.607   0.369   0.183   0.019   0.020   0.016
 108  0.602   0.385   0.165   0.016   0.017   0.019
 109  0.607   0.391   0.162   0.018   0.018   0.017
 110  0.610   0.380   0.172   0.019   0.020   0.020
 112  0.655   0.290   0.232   0.049   0.055   0.030
 114  0.611   0.372   0.182   0.017   0.018   0.022
 118  0.605   0.388   0.164   0.019   0.018   0.017
 119  0.609   0.394   0.160   0.017   0.019   0.018
 120  0.610   0.384   0.170   0.018   0.020   0.019
 122  0.659   0.294   0.230   0.031   0.056   0.048
 124  0.615   0.375   0.181   0.020   0.021   0.019
 128  0.611   0.396   0.160   0.017   0.018   0.020
 129  0.611   0.396   0.160   0.018   0.020   0.017
 130  0.609   0.380   0.170   0.019   0.021   0.018

Species: O                   
Atom  Qatom  Qorb
               2s      2s      2py     2pz     2px     2py     2pz     2px     
               2Pdxy   2Pdyz   2Pdz2   2Pdxz   2Pdx2-y2
  66  2.951   0.527   0.225   0.722   0.489   0.773   0.026   0.154   0.018
              0.001   0.005   0.006   0.005   0.001
  76  2.949   0.528   0.227   0.788   0.525   0.678   0.019   0.135   0.031
              0.001   0.005   0.006   0.005   0.001
  86  2.945   0.528   0.226   0.661   0.479   0.837   0.036   0.155   0.005
              0.000   0.007   0.007   0.004   0.000
  96  2.975   0.540   0.220   0.853   0.565   0.650  -0.001   0.095   0.031
              0.001   0.004   0.007   0.007   0.001
 106  2.981   0.531   0.225   0.647   0.617   0.841   0.032   0.070   0.000
              0.001   0.006   0.006   0.004   0.001
 116  2.997   0.538   0.219   0.846   0.617   0.674  -0.006   0.070   0.021
              0.001   0.004   0.006   0.006   0.001
 126  2.969   0.517   0.232   0.650   0.818   0.608   0.044   0.008   0.072
              0.005   0.001   0.003   0.004   0.006
 131  3.064   0.643   0.156   0.828   0.598   0.835  -0.027   0.049  -0.033
              0.001   0.004   0.005   0.003   0.002

mulliken: Qtot =      760.973

coxmol: Writing XMOL coordinates into file em.xyz                                                              

siesta: Program's energy decomposition (eV):
siesta: Ebs     =    -11071.225620
siesta: Eions   =    130205.740393
siesta: Ena     =      3113.548703
siesta: Ekin    =     87900.806310
siesta: Enl     =    -59004.592627
siesta: Eso     =         0.000000
siesta: Eldau   =         0.000000
siesta: DEna    =       -39.037413
siesta: DUscf   =        28.888328
siesta: DUext   =         0.000000
siesta: Exc     =    -19929.126936
siesta: eta*DQ  =         0.000000
siesta: Emadel  =         0.000000
siesta: Emeta   =         0.000000
siesta: Emolmec =         0.000000
siesta: Ekinion =         0.000000
siesta: Eharris =   -118135.254030
siesta: Etot    =   -118135.254028
siesta: FreeEng =   -118135.524495

siesta: Final energy (eV):
siesta:  Band Struct. =  -11071.225620
siesta:       Kinetic =   87900.806310
siesta:       Hartree =  540439.380519
siesta:       Eldau   =       0.000000
siesta:       Eso     =       0.000000
siesta:    Ext. field =       0.000000
siesta:   Exch.-corr. =  -19929.126936
siesta:  Ion-electron =-1153762.679309
siesta:       Ion-ion =  427216.365388
siesta:       Ekinion =       0.000000
siesta:         Total = -118135.254028
siesta:         Fermi =      -2.070137

siesta: Atomic forces (eV/Ang):
siesta:      1   -0.458265   -0.455041   -0.790238
siesta:      2    0.455548   -0.461666   -0.773829
siesta:      3    0.465935    0.464833   -0.764506
siesta:      4   -0.462237    0.451849   -0.777295
siesta:      5   -0.001784   -1.003406    0.254016
siesta:      6   -0.004583   -0.003846   -0.687714
siesta:      7   -1.216910   -1.216204    0.076318
siesta:      8    1.214651   -1.206370    0.078873
siesta:      9    1.003651   -0.001073    0.242018
siesta:     10    1.214073    1.211264    0.082179
siesta:     11   -1.000972   -0.001086    0.256082
siesta:     12   -1.209190    1.214043    0.077882
siesta:     13   -0.001874    1.006257    0.243574
siesta:     14   -0.000619   -0.781734   -0.027837
siesta:     15    0.007469    0.005489   -0.005562
siesta:     16   -1.186651   -1.184046    0.051925
siesta:     17    1.185162   -1.179881    0.049561
siesta:     18    0.770425   -0.000503   -0.036059
siesta:     19    1.187850    1.186252    0.046184
siesta:     20   -0.780432   -0.000418   -0.027348
siesta:     21   -1.181971    1.182899    0.050829
siesta:     22   -0.000648    0.773880   -0.034296
siesta:     23    0.000560   -0.854564   -0.075802
siesta:     24    0.004780    0.003912    0.005385
siesta:     25    0.847270    0.001540   -0.055287
siesta:     26   -0.852050   -0.000044   -0.081175
siesta:     27    0.002203    0.850089   -0.058820
siesta:     28   -1.145417   -1.143518    0.003791
siesta:     29    1.142845   -1.137216    0.005813
siesta:     30    1.147336    1.144461   -0.003079
siesta:     31   -1.138817    1.139702    0.006768
siesta:     32    0.006361   -0.877977    0.057544
siesta:     33   -0.005469   -0.004479   -0.014951
siesta:     34   -1.208521   -1.206545   -0.049653
siesta:     35    1.190512   -1.191379   -0.051973
siesta:     36    0.882212    0.001047    0.055756
siesta:     37    1.195817    1.191971   -0.053666
siesta:     38   -0.873932    0.004713    0.056603
siesta:     39   -1.197778    1.190973   -0.051914
siesta:     40    0.002689    0.885021    0.059805
siesta:     41    0.001230   -0.777096    0.004868
siesta:     42   -0.009524   -0.008032    0.092754
siesta:     43   -1.112535   -1.107739   -0.064673
siesta:     44    1.115900   -1.118326   -0.050285
siesta:     45    0.785297   -0.000232    0.003526
siesta:     46    1.144014    1.141011   -0.045452
siesta:     47   -0.772014    0.001677    0.003497
siesta:     48   -1.115746    1.105470   -0.054449
siesta:     49   -0.000572    0.788695    0.006578
siesta:     50   -0.008055   -1.085218   -0.182083
siesta:     51    0.005655    0.002995    0.323869
siesta:     52    1.069424   -0.005893   -0.241506
siesta:     53   -1.083120   -0.003908   -0.180478
siesta:     54   -0.010357    1.078136   -0.228024
siesta:     55   -0.756344   -0.743947    0.622672
siesta:     56    0.736042   -0.696171    0.506621
siesta:     57    0.682246    0.671771    0.645355
siesta:     58   -0.704311    0.730785    0.503492
siesta:     59   -0.122175   -0.023037    1.174308
siesta:     60   -0.087657   -0.329457   -0.461093
siesta:     61   -0.708265    1.890465   -0.362927
siesta:     62    0.428871    0.436612    0.725508
siesta:     63    1.818244   -0.718498    1.414367
siesta:     64   -0.789842   -0.226247   -0.771864
siesta:     65   -0.818154    0.046794    0.117247
siesta:     66    0.511736   -0.159007   -0.419536
siesta:     67    0.542122   -0.420678   -1.088050
siesta:     68   -0.398375    0.373075   -0.378250
siesta:     69   -0.052149   -0.518827    0.450282
siesta:     70    0.468847    0.183042    0.374479
siesta:     71    0.576447    0.487084   -1.118335
siesta:     72   -0.093671   -0.613301    0.822582
siesta:     73    0.270636   -1.020940    0.732637
siesta:     74   -0.459352    0.396171   -0.475518
siesta:     75   -0.244832    0.639457   -0.527690
siesta:     76   -0.105304   -0.495024    0.452809
siesta:     77   -0.870456   -0.562236   -0.562637
siesta:     78    0.262517    0.263733   -0.366595
siesta:     79   -0.188492    0.281967    0.372926
siesta:     80    0.318762   -0.400428    0.167463
siesta:     81    0.148408   -0.464862   -0.752220
siesta:     82   -0.102546    0.009829    0.625294
siesta:     83   -0.773491   -0.328741    0.862192
siesta:     84    0.321917    0.456347   -0.520497
siesta:     85    0.187477    0.152278   -0.752081
siesta:     86   -0.212189    0.135541    0.654629
siesta:     87   -0.478793    1.086503   -0.424489
siesta:     88    0.075964   -0.298177   -0.377320
siesta:     89    0.387811    0.123257    0.295596
siesta:     90   -0.387333   -0.326813    0.297658
siesta:     91   -0.274526   -0.043510   -0.547165
siesta:     92   -0.121235    0.201323    0.307133
siesta:     93   -0.092022    0.769237    0.873447
siesta:     94    0.242380   -0.346976   -0.580515
siesta:     95   -0.084300    0.051417   -0.734014
siesta:     96    0.430420    0.024323    0.803022
siesta:     97    0.976351    0.307613   -0.597284
siesta:     98   -0.363316   -0.049968   -0.326820
siesta:     99    0.091291   -0.448692    0.274401
siesta:    100   -0.087560    0.598849    0.418593
siesta:    101   -0.027218    0.259584   -0.575335
siesta:    102    0.120646    0.097475    0.871660
siesta:    103    0.981288   -0.157744    0.671875
siesta:    104   -0.479014   -0.173449   -0.523214
siesta:    105   -0.430909    0.222189   -0.892783
siesta:    106    0.452693   -0.286856    1.012797
siesta:    107    0.024608   -0.960947   -0.666338
siesta:    108   -0.072518    0.382598   -0.331405
siesta:    109   -0.327049   -0.121477    0.460746
siesta:    110    0.626240    0.011398    0.251781
siesta:    111    0.337739   -0.007939   -0.590428
siesta:    112    0.205442   -0.221349    0.690235
siesta:    113   -0.114704   -0.984372    0.731236
siesta:    114   -0.278636    0.535453   -0.465351
siesta:    115    0.040563    0.162335   -0.735518
siesta:    116   -0.152423   -0.303414    0.890010
siesta:    117   -1.092866    0.051623   -0.436987
siesta:    118    0.305317    0.040416   -0.436711
siesta:    119    0.009650    0.334971    0.483086
siesta:    120   -0.000683   -0.612219    0.241250
siesta:    121    0.144340   -0.203685   -0.581665
siesta:    122   -0.302312   -0.118273    0.649266
siesta:    123   -0.727018    0.248233    0.938606
siesta:    124    0.525617    0.104834   -0.440813
siesta:    125    0.318639   -0.936146   -3.153850
siesta:    126   -0.252063    0.277933    0.710884
siesta:    127    0.297924    1.085160   -0.421299
siesta:    128   -0.024750   -0.281077   -0.474431
siesta:    129    0.357085   -0.088861    0.540112
siesta:    130   -0.639503    0.213786    0.287308
siesta:    131    0.718717    0.127753    2.873543
siesta:    132   -0.301790    0.454030   -0.323838
siesta:    133   -0.267847   -0.206418   -1.359335
siesta:    134   -0.735455    0.762164   -0.483930
siesta:    135    0.725266    0.717746   -0.653612
siesta:    136    0.769302   -0.727908   -0.491179
siesta:    137   -0.786747   -0.772425   -0.645409
siesta:    138   -0.016645    1.035523    0.263668
siesta:    139   -1.054589   -0.012234    0.175470
siesta:    140    1.027713   -0.012741    0.279099
siesta:    141    0.008233    0.006520   -0.309445
siesta:    142   -0.016148   -1.057414    0.177107
siesta:    143    0.001160    0.796156    0.004053
siesta:    144   -1.147330    1.138431    0.045050
siesta:    145   -0.767905    0.003178    0.008461
siesta:    146    1.179456    1.177128    0.029552
siesta:    147    0.796104    0.000177    0.008120
siesta:    148    1.142571   -1.147178    0.044002
siesta:    149   -1.137446   -1.135627    0.060104
siesta:    150   -0.020842   -0.017718   -0.067651
siesta:    151    0.004131   -0.772023    0.004506
siesta:    152    0.003496    0.895953   -0.069164
siesta:    153   -1.208118    1.187925    0.044871
siesta:    154   -0.877450    0.008572   -0.058240
siesta:    155    1.198256    1.198886    0.043958
siesta:    156    0.896222    0.002567   -0.067006
siesta:    157    1.188652   -1.205574    0.044075
siesta:    158   -1.216643   -1.212758    0.041667
siesta:    159   -0.010634   -0.008868    0.037405
siesta:    160    0.009529   -0.880708   -0.062032
siesta:    161   -1.132887    1.139563   -0.011534
siesta:    162    1.143699    1.142415    0.005651
siesta:    163    1.141159   -1.132494   -0.009578
siesta:    164   -1.139685   -1.138964   -0.012436
siesta:    165    0.003209    0.853668    0.058513
siesta:    166   -0.868191    0.001674    0.102172
siesta:    167    0.851026    0.002806    0.056870
siesta:    168    0.014181    0.011676   -0.021360
siesta:    169    0.002058   -0.867394    0.096601
siesta:    170   -0.001715    0.771163    0.031864
siesta:    171   -1.185607    1.206634   -0.051148
siesta:    172   -0.792891   -0.000619    0.021040
siesta:    173    1.196834    1.193536   -0.045796
siesta:    174    0.768410   -0.001434    0.034141
siesta:    175    1.205761   -1.183624   -0.050406
siesta:    176   -1.199164   -1.201415   -0.054678
siesta:    177    0.017374    0.014038    0.011824
siesta:    178   -0.000910   -0.791091    0.020693
siesta:    179   -0.002367    1.002241   -0.235820
siesta:    180   -1.216308    1.226056   -0.077890
siesta:    181   -0.996596   -0.003176   -0.265214
siesta:    182    1.221815    1.221167   -0.084024
siesta:    183    1.002572   -0.001892   -0.232177
siesta:    184    1.226786   -1.216479   -0.079108
siesta:    185   -1.222977   -1.223050   -0.069777
siesta:    186   -0.008675   -0.007323    0.673259
siesta:    187   -0.003641   -0.997230   -0.263039
siesta:    188   -0.482219    0.462857    0.766209
siesta:    189    0.480287    0.481989    0.726750
siesta:    190    0.463928   -0.483163    0.759858
siesta:    191   -0.466768   -0.464937    0.793159
siesta: ----------------------------------------
siesta:    Tot    0.058464    0.023170   -0.028927

siesta: Stress tensor (static) (eV/Ang**3):
siesta:    -0.001785    0.000014   -0.000022
siesta:     0.000014   -0.001749    0.000025
siesta:    -0.000022    0.000025   -0.001646

siesta: Cell volume =      76024.536210 Ang**3

siesta: Pressure (static):
siesta:                Solid            Molecule  Units
siesta:           0.00001881         -0.00000006  Ry/Bohr**3
siesta:           0.00172662         -0.00000528  eV/Ang**3
siesta:           2.76638042         -0.00846278  kBar
(Free)E+ p_basis*V_orbitals  =     -118083.943959
(Free)Eharris+ p_basis*V_orbitals  =     -118083.943961

siesta: Total spin polarization (Qup-Qdown) =    0.053358

siesta: Electric dipole (a.u.)  =    0.813742   -1.213352    0.919375
siesta: Electric dipole (Debye) =    2.068328   -3.084036    2.336820

dhscf: Vacuum level (max, mean) =    3.778650    0.022495 eV

timer: Elapsed wall time (sec) =   18171.914
timer: CPU execution times (sec):

Routine            Calls   Time/call    Tot.time        %
siesta                 1   18168.554   18168.554   100.00
Setup                  1       0.243       0.243     0.00
bands                  1       0.000       0.000     0.00
KSV_init               1       0.000       0.000     0.00
IterGeom               1   18147.407   18147.407    99.88
state_init             1       1.505       1.505     0.01
hsparse                1       0.029       0.029     0.00
overlap                1       1.449       1.449     0.01
Setup_H0               1      39.258      39.258     0.22
naefs                  2       0.002       0.003     0.00
MolMec                 2       0.000       0.000     0.00
kinefsm                2       0.789       1.577     0.01
nlefsm                 2       4.269       8.538     0.05
DHSCF_Init             1      29.457      29.457     0.16
DHSCF1                 1       0.295       0.295     0.00
INITMESH               1       0.000       0.000     0.00
DHSCF2                 1      29.161      29.161     0.16
REMESH                 1       4.850       4.850     0.03
REORD                235       0.183      43.093     0.24
PHION                  1      11.208      11.208     0.06
COMM_BSC             230       0.184      42.207     0.23
POISON                58       8.197     475.408     2.62
fft                  116       3.354     389.115     2.14
IterSCF               54     334.553   18065.887    99.43
setup_H               55      21.622    1189.190     6.55
DHSCF                 57      21.800    1242.600     6.84
DHSCF3                57      21.471    1223.863     6.74
rhoofd                57       2.761     157.388     0.87
CellXC                57       2.957     168.576     0.93
cellXC                57       2.957     168.576     0.93
vmat                  56       2.354     131.827     0.73
writeHSX              56       0.032       1.803     0.01
compute_dm            54     312.514   16875.754    92.88
diagon                54     312.511   16875.604    92.88
c-eigval            1512       3.434    5191.488    28.57
c-buildHS           1512       0.007      10.756     0.06
cdiag               3024       5.067   15321.306    84.33
cdiag1              3024       0.455    1375.213     7.57
cdiag2              3024       1.123    3395.878    18.69
cdiag3              3024       3.060    9254.464    50.94
cdiag4              3024       0.428    1295.556     7.13
c-eigvec            1512       6.714   10151.076    55.87
c-buildD            1512       1.014    1532.662     8.44
MIXER                 53       0.012       0.617     0.00
PostSCF                1      40.750      40.750     0.22
DHSCF4                 1      18.736      18.736     0.10
dfscf                  1      13.172      13.172     0.07
overfsm                1       0.059       0.059     0.00
state_analysis         1       0.002       0.002     0.00
siesta_move            1       0.000       0.000     0.00
Analysis               1      20.863      20.863     0.11
optical                1       0.000       0.000     0.00
  
>> End of run:   9-DEC-2023   3:54:33
Job completed
