
                           ***********************       
                           *  WELCOME TO SIESTA  *       
                           ***********************       

reinit: Reading from standard input
reinit: Dumped input in INPUT_TMP.05800
************************** Dump of input data file ****************************
SystemName  em
SystemLabel em
==================================================
==================================================
# SPECIES AND BASIS
# Number of species
NumberOfSpecies 5
%block ChemicalSpeciesLabel
  1   79  Au
  2    7  N
  3    6  C
  4    1  H
  5    8  O
%endblock ChemicalSpeciesLabel
%block    PAO.BasisSizes
  Au        SZ
   N        DZP
   C        DZP
   H        DZP
   O        DZP
%endblock PAO.BasisSizes
%block PS.lmax
  Au  2
%endblock PS.lmax
==================================================
==================================================
# K-points
%block kgrid_Monkhorst_Pack
3   0   0   0.0
0   3   0   0.0
0   0   3   0.0
%endblock kgrid_Monkhorst_Pack
T CELL AND ATOMIC POSITIONS
==================================================
==================================================
# UNIT CELL AND ATOMIC POSITIONS
# UNIT CELL
LatticeConstant       1.00 Ang
%block LatticeVectors
30.00000000   0.00000000000   0.0000000000
0.000000000   30.0000000000   0.0000000000
0.000000000   0.00000000000  84.4717069000
%endblock LatticeVectors
# Atomic coordinates
NumberOfAtoms 191
AtomicCoordinatesFormat ScaledCartesian
%block AtomicCoordinatesAndAtomicSpecies < ../em.fdf
==================================================
==================================================
# General variables
#ElectronicTemperature  100 K
MeshCutoff           350. Ry
xc.functional         LDA           # Exchange-correlation functional
xc.authors            CA
SpinPolarized .true.
SpinOrbit     .true.
SolutionMethod diagon
#SolutionMethod Transiesta
NetCharge		0
==================================================
==================================================
# SCF variables
DM.MixSCF1   T
MaxSCFIterations      300           # Maximum number of SCF iter
DM.MixingWeight       0.03          # New DM amount for next SCF cycle
DM.Tolerance          1.d-4         # Tolerance in maximum difference
DM.UseSaveDM          true          # to use continuation files
DM.NumberPulay         5
Diag.DivideAndConquer  no
Diag.ParallelOverK     yes
==================================================
==================================================
# MD variables
MD.FinalTimeStep 1
MD.TypeOfRun CG
MD.NumCGsteps     000
MD.UseSaveXV      .true.
==================================================
==================================================
# Output variables
WriteMullikenPop                1
WriteBands                      .false.
SaveRho                         .false.
SaveDeltaRho                    .false.
SaveHS                          .true.
SaveElectrostaticPotential      True
SaveTotalPotential              no
WriteCoorXmol                   .true.
WriteMDXmol                     .true.
WriteMDhistory                  .false.
WriteEigenvalues                yes
==================================================
==================================================
# Transiesta information
# GF OPTIONS
TS.ComplexContour.Emin    -30.0 eV
TS.ComplexContour.NPoles       10
TS.ComplexContour.NCircle      30
TS.ComplexContour.NLine        10
# BIAS OPTIONS
TS.biasContour.NumPoints       00
# TS OPTIONS
TS.Voltage 0.000000 eV
# TBT OPTIONS
TS.TBT.Emin -5.0 eV
TS.TBT.Emax +5.0 eV
TS.TBT.NPoints 500
TS.TBT.NEigen 3
TS.TBT.Eta        0.000001 Ry
# Write hamiltonian
TS.SaveHS   .true.
# LEFT ELECTRODE
TS.HSFileLeft  ./Au_Elec_ABC.TSHS
#TS.ReplicateA1Left    1
#TS.ReplicateA2Left    1
TS.NumUsedAtomsLeft    9
TS.BufferAtomsLeft     0
# RIGHT ELECTRODE
TS.HSFileRight  ./Au_Elec_ABC.TSHS
#TS.ReplicateA1Right   1
#TS.ReplicateA2Right   1
TS.NumUsedAtomsRight   9
TS.BufferAtomsRight    0
==================================================
==================================================
************************** End of input data file *****************************

reinit: -----------------------------------------------------------------------
reinit: System Name: em
reinit: -----------------------------------------------------------------------
reinit: System Label: em
reinit: -----------------------------------------------------------------------
Siesta Version: siesta-4.1--736
Architecture  : unknown
Compiler flags: gfortran -O2 -fPIC -ftree-vectorize -fallow-argument-mismatch
PP flags      : -DFC_HAVE_ABORT
Libraries     : libsiestaLAPACK.a libsiestaBLAS.a
SERIAL version

* Running in serial mode
>> Start of run:  19-DEC-2023  12:22:52

initatom: Reading input for the pseudopotentials and atomic orbitals ----------
Species number:   1 Atomic number:   79 Label: Au
Species number:   2 Atomic number:    7 Label: N
Species number:   3 Atomic number:    6 Label: C
Species number:   4 Atomic number:    1 Label: H
Species number:   5 Atomic number:    8 Label: O

Ground state valence configuration:   6s01  5d10
Reading pseudopotential information in formatted form from Au.psf

Pseudopotential generated from a relativistic atomic calculation
There are spin-orbit pseudopotentials available
Spin-orbit interaction is not included in this calculation

Valence configuration for pseudopotential generation:
6s( 1.00) rc: 2.60
6p( 0.00) rc: 2.77
5d(10.00) rc: 2.60
5f( 0.00) rc: 2.60
Ground state valence configuration:   2s02  2p03
Reading pseudopotential information in formatted form from N.psf

Pseudopotential generated from a relativistic atomic calculation
There are spin-orbit pseudopotentials available
Spin-orbit interaction is not included in this calculation

Valence configuration for pseudopotential generation:
2s( 2.00) rc: 1.48
2p( 3.00) rc: 1.48
3d( 0.00) rc: 1.48
4f( 0.00) rc: 1.48
Ground state valence configuration:   2s02  2p02
Reading pseudopotential information in formatted form from C.psf

Pseudopotential generated from a relativistic atomic calculation
There are spin-orbit pseudopotentials available
Spin-orbit interaction is not included in this calculation

Valence configuration for pseudopotential generation:
2s( 2.00) rc: 1.54
2p( 2.00) rc: 1.54
3d( 0.00) rc: 1.54
4f( 0.00) rc: 1.54
Ground state valence configuration:   1s01
Reading pseudopotential information in formatted form from H.psf

Pseudopotential generated from a relativistic atomic calculation
There are spin-orbit pseudopotentials available
Spin-orbit interaction is not included in this calculation

Valence configuration for pseudopotential generation:
1s( 1.00) rc: 1.31
2p( 0.00) rc: 1.31
3d( 0.00) rc: 0.37
4f( 0.00) rc: 1.31
Ground state valence configuration:   2s02  2p04
Reading pseudopotential information in formatted form from O.psf

Pseudopotential generated from a relativistic atomic calculation
There are spin-orbit pseudopotentials available
Spin-orbit interaction is not included in this calculation

Valence configuration for pseudopotential generation:
2s( 2.00) rc: 1.47
2p( 4.00) rc: 1.47
3d( 0.00) rc: 1.47
4f( 0.00) rc: 1.47
resizes: Read basis size for species Au = sz                  
resizes: Read basis size for species N = dzp                 
resizes: Read basis size for species C = dzp                 
resizes: Read basis size for species H = dzp                 
resizes: Read basis size for species O = dzp                 
relmxkb: Read Max KB Ang. Momentum=    2 for species Au
For N, standard SIESTA heuristics set lmxkb to 3
 (one more than the basis l, including polarization orbitals).
Use PS.lmax or PS.KBprojectors blocks to override.
For C, standard SIESTA heuristics set lmxkb to 3
 (one more than the basis l, including polarization orbitals).
Use PS.lmax or PS.KBprojectors blocks to override.
For H, standard SIESTA heuristics set lmxkb to 2
 (one more than the basis l, including polarization orbitals).
Use PS.lmax or PS.KBprojectors blocks to override.
For O, standard SIESTA heuristics set lmxkb to 3
 (one more than the basis l, including polarization orbitals).
Use PS.lmax or PS.KBprojectors blocks to override.

<basis_specs>
===============================================================================
Au                   Z=  79    Mass=  196.97        Charge= 0.17977+309
Lmxo=2 Lmxkb= 2    BasisType=split      Semic=F
L=0  Nsemic=0  Cnfigmx=6
          n=1  nzeta=1  polorb=0
            splnorm:   0.15000    
               vcte:    0.0000    
               rinn:    0.0000    
               qcoe:    0.0000    
               qyuk:    0.0000    
               qwid:   0.10000E-01
                rcs:    0.0000    
            lambdas:    1.0000    
L=1  Nsemic=0  Cnfigmx=6
L=2  Nsemic=0  Cnfigmx=5
          n=1  nzeta=1  polorb=0
            splnorm:   0.15000    
               vcte:    0.0000    
               rinn:    0.0000    
               qcoe:    0.0000    
               qyuk:    0.0000    
               qwid:   0.10000E-01
                rcs:    0.0000    
            lambdas:    1.0000    
-------------------------------------------------------------------------------
L=0  Nkbl=1  erefs: 0.17977+309
L=1  Nkbl=1  erefs: 0.17977+309
L=2  Nkbl=1  erefs: 0.17977+309
===============================================================================
</basis_specs>

atom: Called for Au                    (Z =  79)

read_vps: Pseudopotential generation method:
read_vps: ATM4.2.7  Troullier-Martins                       
Total valence charge:   11.00000

xc_check: Exchange-correlation functional:
xc_check: Ceperley-Alder
V l=0 = -2*Zval/r beyond r=  3.7361
V l=1 = -2*Zval/r beyond r=  3.7361
V l=2 = -2*Zval/r beyond r=  3.7361
All V_l potentials equal beyond r=  2.6994
This should be close to max(r_c) in ps generation
All pots = -2*Zval/r beyond r=  3.7361
Using large-core scheme for Vlocal

atom: Estimated core radius    3.73611

atom: Including non-local core corrections could be a good idea
atom: Maximum radius for 4*pi*r*r*local-pseudopot. charge    4.07775
atom: Maximum radius for r*vlocal+2*Zval:    3.78310
GHOST: No ghost state for L =  0
GHOST: No ghost state for L =  1
GHOST: No ghost state for L =  2

KBgen: Kleinman-Bylander projectors: 
   l= 0   rc=  2.802581   el= -0.445644   Ekb=  3.908625   kbcos=  0.222548
   l= 1   rc=  2.802581   el= -0.066825   Ekb=  1.555330   kbcos=  0.234902
   l= 2   rc=  2.767767   el= -0.526351   Ekb= -5.977941   kbcos= -0.723482

KBgen: Total number of  Kleinman-Bylander projectors:    9
atom: -------------------------------------------------------------------------

atom: SANKEY-TYPE ORBITALS:

SPLIT: Orbitals with angular momentum L= 0

SPLIT: Basis orbitals for state 6s

SPLIT: PAO cut-off radius determined from an
SPLIT: energy shift=  0.020000 Ry

   izeta = 1
                 lambda =    1.000000
                     rc =    6.083298
                 energy =   -0.427287
                kinetic =    0.392598
    potential(screened) =   -0.819885
       potential(ionic) =   -8.596164

SPLIT: Orbitals with angular momentum L= 2

SPLIT: Basis orbitals for state 5d

SPLIT: PAO cut-off radius determined from an
SPLIT: energy shift=  0.020000 Ry

   izeta = 1
                 lambda =    1.000000
                     rc =    4.286818
                 energy =   -0.508109
                kinetic =    4.851847
    potential(screened) =   -5.359956
       potential(ionic) =  -16.120163
atom: Total number of Sankey-type orbitals:  6

atm_pop: Valence configuration (for local Pseudopot. screening):
 6s( 1.00)                                                            
 6p( 0.00)                                                            
 5d(10.00)                                                            
Vna: chval, zval:   11.00000  11.00000

Vna:  Cut-off radius for the neutral-atom potential:   6.083298

atom: _________________________________________________________________________

<basis_specs>
===============================================================================
N                    Z=   7    Mass=  14.010        Charge= 0.17977+309
Lmxo=1 Lmxkb= 3    BasisType=split      Semic=F
L=0  Nsemic=0  Cnfigmx=2
          n=1  nzeta=2  polorb=0
            splnorm:   0.15000    
               vcte:    0.0000    
               rinn:    0.0000    
               qcoe:    0.0000    
               qyuk:    0.0000    
               qwid:   0.10000E-01
                rcs:    0.0000      0.0000    
            lambdas:    1.0000      1.0000    
L=1  Nsemic=0  Cnfigmx=2
          n=1  nzeta=2  polorb=1
            splnorm:   0.15000    
               vcte:    0.0000    
               rinn:    0.0000    
               qcoe:    0.0000    
               qyuk:    0.0000    
               qwid:   0.10000E-01
                rcs:    0.0000      0.0000    
            lambdas:    1.0000      1.0000    
-------------------------------------------------------------------------------
L=0  Nkbl=1  erefs: 0.17977+309
L=1  Nkbl=1  erefs: 0.17977+309
L=2  Nkbl=1  erefs: 0.17977+309
L=3  Nkbl=1  erefs: 0.17977+309
===============================================================================
</basis_specs>

atom: Called for N                     (Z =   7)

read_vps: Pseudopotential generation method:
read_vps: ATM4.2.7  Troullier-Martins                       
Total valence charge:    5.00000

xc_check: Exchange-correlation functional:
xc_check: Ceperley-Alder
V l=0 = -2*Zval/r beyond r=  1.4606
V l=1 = -2*Zval/r beyond r=  1.4606
V l=2 = -2*Zval/r beyond r=  1.4606
V l=3 = -2*Zval/r beyond r=  1.4606
All V_l potentials equal beyond r=  1.4606
This should be close to max(r_c) in ps generation
All pots = -2*Zval/r beyond r=  1.4606

VLOCAL1: 99.0% of the norm of Vloc inside     20.347 Ry
VLOCAL1: 99.9% of the norm of Vloc inside     46.372 Ry
atom: Maximum radius for 4*pi*r*r*local-pseudopot. charge    1.76189
atom: Maximum radius for r*vlocal+2*Zval:    1.53550
GHOST: No ghost state for L =  0
GHOST: No ghost state for L =  1
GHOST: No ghost state for L =  2
GHOST: No ghost state for L =  3

KBgen: Kleinman-Bylander projectors: 
   l= 0   rc=  1.675947   el= -1.353297   Ekb=  4.892109   kbcos=  0.337655
   l= 1   rc=  1.655124   el= -0.532333   Ekb= -5.549267   kbcos= -0.433001
   l= 2   rc=  2.047085   el=  0.002346   Ekb= -1.340614   kbcos= -0.007544
   l= 3   rc=  2.348881   el=  0.003449   Ekb= -0.558194   kbcos= -0.000959

KBgen: Total number of  Kleinman-Bylander projectors:   16
atom: -------------------------------------------------------------------------

atom: SANKEY-TYPE ORBITALS:
atom: Selected multiple-zeta basis: split     

SPLIT: Orbitals with angular momentum L= 0

SPLIT: Basis orbitals for state 2s

SPLIT: PAO cut-off radius determined from an
SPLIT: energy shift=  0.020000 Ry

   izeta = 1
                 lambda =    1.000000
                     rc =    3.683980
                 energy =   -1.334887
                kinetic =    1.204128
    potential(screened) =   -2.539016
       potential(ionic) =   -8.130297

   izeta = 2
                 rmatch =    2.905100
              splitnorm =    0.150000
                 energy =   -1.140084
                kinetic =    1.810869
    potential(screened) =   -2.950953
       potential(ionic) =   -8.949068

SPLIT: Orbitals with angular momentum L= 1

SPLIT: Basis orbitals for state 2p

SPLIT: PAO cut-off radius determined from an
SPLIT: energy shift=  0.020000 Ry

   izeta = 1
                 lambda =    1.000000
                     rc =    4.280232
                 energy =   -0.512164
                kinetic =    3.599466
    potential(screened) =   -4.111630
       potential(ionic) =   -9.551775

   izeta = 2
                 rmatch =    2.941647
              splitnorm =    0.150000
                 energy =   -0.291934
                kinetic =    5.358713
    potential(screened) =   -5.650647
       potential(ionic) =  -11.695624

POLgen: Perturbative polarization orbital with L=  2

POLgen: Polarization orbital for state 2p

   izeta = 1
                     rc =    4.280232
                 energy =    1.826318
                kinetic =    3.687078
    potential(screened) =   -1.860760
       potential(ionic) =   -6.363680
atom: Total number of Sankey-type orbitals: 13

atm_pop: Valence configuration (for local Pseudopot. screening):
 2s( 2.00)                                                            
 2p( 3.00)                                                            
Vna: chval, zval:    5.00000   5.00000

Vna:  Cut-off radius for the neutral-atom potential:   4.280232

atom: _________________________________________________________________________

<basis_specs>
===============================================================================
C                    Z=   6    Mass=  12.010        Charge= 0.17977+309
Lmxo=1 Lmxkb= 3    BasisType=split      Semic=F
L=0  Nsemic=0  Cnfigmx=2
          n=1  nzeta=2  polorb=0
            splnorm:   0.15000    
               vcte:    0.0000    
               rinn:    0.0000    
               qcoe:    0.0000    
               qyuk:    0.0000    
               qwid:   0.10000E-01
                rcs:    0.0000      0.0000    
            lambdas:    1.0000      1.0000    
L=1  Nsemic=0  Cnfigmx=2
          n=1  nzeta=2  polorb=1
            splnorm:   0.15000    
               vcte:    0.0000    
               rinn:    0.0000    
               qcoe:    0.0000    
               qyuk:    0.0000    
               qwid:   0.10000E-01
                rcs:    0.0000      0.0000    
            lambdas:    1.0000      1.0000    
-------------------------------------------------------------------------------
L=0  Nkbl=1  erefs: 0.17977+309
L=1  Nkbl=1  erefs: 0.17977+309
L=2  Nkbl=1  erefs: 0.17977+309
L=3  Nkbl=1  erefs: 0.17977+309
===============================================================================
</basis_specs>

atom: Called for C                     (Z =   6)

read_vps: Pseudopotential generation method:
read_vps: ATM4.2.7  Troullier-Martins                       
Total valence charge:    4.00000

xc_check: Exchange-correlation functional:
xc_check: Ceperley-Alder
V l=0 = -2*Zval/r beyond r=  1.5227
V l=1 = -2*Zval/r beyond r=  1.5227
V l=2 = -2*Zval/r beyond r=  1.5227
V l=3 = -2*Zval/r beyond r=  1.5038
All V_l potentials equal beyond r=  1.5227
This should be close to max(r_c) in ps generation
All pots = -2*Zval/r beyond r=  1.5227

VLOCAL1: 99.0% of the norm of Vloc inside     18.722 Ry
VLOCAL1: 99.9% of the norm of Vloc inside     42.668 Ry
atom: Maximum radius for 4*pi*r*r*local-pseudopot. charge    1.83678
atom: Maximum radius for r*vlocal+2*Zval:    1.58088
GHOST: No ghost state for L =  0
GHOST: No ghost state for L =  1
GHOST: No ghost state for L =  2
GHOST: No ghost state for L =  3

KBgen: Kleinman-Bylander projectors: 
   l= 0   rc=  1.769164   el= -1.002383   Ekb=  4.944706   kbcos=  0.320005
   l= 1   rc=  1.769164   el= -0.398438   Ekb= -4.111874   kbcos= -0.367023
   l= 2   rc=  2.107589   el=  0.002326   Ekb= -1.050436   kbcos= -0.009341
   l= 3   rc=  2.358593   el=  0.003420   Ekb= -0.444500   kbcos= -0.001214

KBgen: Total number of  Kleinman-Bylander projectors:   16
atom: -------------------------------------------------------------------------

atom: SANKEY-TYPE ORBITALS:
atom: Selected multiple-zeta basis: split     

SPLIT: Orbitals with angular momentum L= 0

SPLIT: Basis orbitals for state 2s

SPLIT: PAO cut-off radius determined from an
SPLIT: energy shift=  0.020000 Ry

   izeta = 1
                 lambda =    1.000000
                     rc =    4.191849
                 energy =   -0.984359
                kinetic =    0.881234
    potential(screened) =   -1.865594
       potential(ionic) =   -5.477335

   izeta = 2
                 rmatch =    3.431921
              splitnorm =    0.150000
                 energy =   -0.853663
                kinetic =    1.298382
    potential(screened) =   -2.152045
       potential(ionic) =   -5.997528

SPLIT: Orbitals with angular momentum L= 1

SPLIT: Basis orbitals for state 2p

SPLIT: PAO cut-off radius determined from an
SPLIT: energy shift=  0.020000 Ry

   izeta = 1
                 lambda =    1.000000
                     rc =    4.870301
                 energy =   -0.378923
                kinetic =    2.540340
    potential(screened) =   -2.919263
       potential(ionic) =   -6.428536

   izeta = 2
                 rmatch =    3.475094
              splitnorm =    0.150000
                 energy =   -0.214881
                kinetic =    3.815219
    potential(screened) =   -4.030100
       potential(ionic) =   -7.921348

POLgen: Perturbative polarization orbital with L=  2

POLgen: Polarization orbital for state 2p

   izeta = 1
                     rc =    4.870301
                 energy =    1.281120
                kinetic =    2.631157
    potential(screened) =   -1.350037
       potential(ionic) =   -4.295491
atom: Total number of Sankey-type orbitals: 13

atm_pop: Valence configuration (for local Pseudopot. screening):
 2s( 2.00)                                                            
 2p( 2.00)                                                            
Vna: chval, zval:    4.00000   4.00000

Vna:  Cut-off radius for the neutral-atom potential:   4.870301

atom: _________________________________________________________________________

<basis_specs>
===============================================================================
H                    Z=   1    Mass=  1.0100        Charge= 0.17977+309
Lmxo=0 Lmxkb= 2    BasisType=split      Semic=F
L=0  Nsemic=0  Cnfigmx=1
          n=1  nzeta=2  polorb=1
            splnorm:   0.15000    
               vcte:    0.0000    
               rinn:    0.0000    
               qcoe:    0.0000    
               qyuk:    0.0000    
               qwid:   0.10000E-01
                rcs:    0.0000      0.0000    
            lambdas:    1.0000      1.0000    
-------------------------------------------------------------------------------
L=0  Nkbl=1  erefs: 0.17977+309
L=1  Nkbl=1  erefs: 0.17977+309
L=2  Nkbl=1  erefs: 0.17977+309
===============================================================================
</basis_specs>

atom: Called for H                     (Z =   1)

read_vps: Pseudopotential generation method:
read_vps: ATM4.2.7  Troullier-Martins                       
Total valence charge:    1.00000

xc_check: Exchange-correlation functional:
xc_check: Ceperley-Alder
V l=0 = -2*Zval/r beyond r=  1.2977
V l=1 = -2*Zval/r beyond r=  1.2815
V l=2 = -2*Zval/r beyond r=  1.1307
All V_l potentials equal beyond r=  1.2977
This should be close to max(r_c) in ps generation
All pots = -2*Zval/r beyond r=  1.2977

VLOCAL1: 99.0% of the norm of Vloc inside     25.776 Ry
VLOCAL1: 99.9% of the norm of Vloc inside     58.745 Ry
atom: Maximum radius for 4*pi*r*r*local-pseudopot. charge    1.52711
atom: Maximum radius for r*vlocal+2*Zval:    1.28155
GHOST: No ghost state for L =  0
GHOST: No ghost state for L =  1
GHOST: No ghost state for L =  2

KBgen: Kleinman-Bylander projectors: 
   l= 0   rc=  1.452513   el= -0.467311   Ekb= -1.940806   kbcos= -0.353010
   l= 1   rc=  1.752576   el=  0.001430   Ekb= -0.484365   kbcos= -0.024070
   l= 2   rc=  1.774652   el=  0.002365   Ekb= -0.503986   kbcos= -0.001615

KBgen: Total number of  Kleinman-Bylander projectors:    9
atom: -------------------------------------------------------------------------

atom: SANKEY-TYPE ORBITALS:
atom: Selected multiple-zeta basis: split     

SPLIT: Orbitals with angular momentum L= 0

SPLIT: Basis orbitals for state 1s

SPLIT: PAO cut-off radius determined from an
SPLIT: energy shift=  0.020000 Ry

   izeta = 1
                 lambda =    1.000000
                     rc =    4.828263
                 energy =   -0.449360
                kinetic =    0.925772
    potential(screened) =   -1.375132
       potential(ionic) =   -1.911259

   izeta = 2
                 rmatch =    3.854947
              splitnorm =    0.150000
                 energy =   -0.336131
                kinetic =    1.498125
    potential(screened) =   -1.834256
       potential(ionic) =   -2.406171

POLgen: Perturbative polarization orbital with L=  1

POLgen: Polarization orbital for state 1s

   izeta = 1
                     rc =    4.828263
                 energy =    0.707058
                kinetic =    1.398648
    potential(screened) =   -0.691590
       potential(ionic) =   -1.171958
atom: Total number of Sankey-type orbitals:  5

atm_pop: Valence configuration (for local Pseudopot. screening):
 1s( 1.00)                                                            
Vna: chval, zval:    1.00000   1.00000

Vna:  Cut-off radius for the neutral-atom potential:   4.828263

atom: _________________________________________________________________________

<basis_specs>
===============================================================================
O                    Z=   8    Mass=  16.000        Charge= 0.17977+309
Lmxo=1 Lmxkb= 3    BasisType=split      Semic=F
L=0  Nsemic=0  Cnfigmx=2
          n=1  nzeta=2  polorb=0
            splnorm:   0.15000    
               vcte:    0.0000    
               rinn:    0.0000    
               qcoe:    0.0000    
               qyuk:    0.0000    
               qwid:   0.10000E-01
                rcs:    0.0000      0.0000    
            lambdas:    1.0000      1.0000    
L=1  Nsemic=0  Cnfigmx=2
          n=1  nzeta=2  polorb=1
            splnorm:   0.15000    
               vcte:    0.0000    
               rinn:    0.0000    
               qcoe:    0.0000    
               qyuk:    0.0000    
               qwid:   0.10000E-01
                rcs:    0.0000      0.0000    
            lambdas:    1.0000      1.0000    
-------------------------------------------------------------------------------
L=0  Nkbl=1  erefs: 0.17977+309
L=1  Nkbl=1  erefs: 0.17977+309
L=2  Nkbl=1  erefs: 0.17977+309
L=3  Nkbl=1  erefs: 0.17977+309
===============================================================================
</basis_specs>

atom: Called for O                     (Z =   8)

read_vps: Pseudopotential generation method:
read_vps: ATM4.2.7  Troullier-Martins                       
Total valence charge:    6.00000

xc_check: Exchange-correlation functional:
xc_check: Ceperley-Alder
V l=0 = -2*Zval/r beyond r=  1.4482
V l=1 = -2*Zval/r beyond r=  1.4482
V l=2 = -2*Zval/r beyond r=  1.4482
V l=3 = -2*Zval/r beyond r=  1.4482
All V_l potentials equal beyond r=  1.4482
This should be close to max(r_c) in ps generation
All pots = -2*Zval/r beyond r=  1.4482

VLOCAL1: 99.0% of the norm of Vloc inside     20.696 Ry
VLOCAL1: 99.9% of the norm of Vloc inside     47.167 Ry
atom: Maximum radius for 4*pi*r*r*local-pseudopot. charge    1.74697
atom: Maximum radius for r*vlocal+2*Zval:    1.52250
GHOST: No ghost state for L =  0
GHOST: No ghost state for L =  1
GHOST: No ghost state for L =  2
GHOST: No ghost state for L =  3

KBgen: Kleinman-Bylander projectors: 
   l= 0   rc=  1.682657   el= -1.744568   Ekb=  4.448678   kbcos=  0.289593
   l= 1   rc=  1.620715   el= -0.676113   Ekb= -7.152049   kbcos= -0.499084
   l= 2   rc=  2.055271   el=  0.002386   Ekb= -1.611701   kbcos= -0.006652
   l= 3   rc=  2.358267   el=  0.003508   Ekb= -0.656031   kbcos= -0.000879

KBgen: Total number of  Kleinman-Bylander projectors:   16
atom: -------------------------------------------------------------------------

atom: SANKEY-TYPE ORBITALS:
atom: Selected multiple-zeta basis: split     

SPLIT: Orbitals with angular momentum L= 0

SPLIT: Basis orbitals for state 2s

SPLIT: PAO cut-off radius determined from an
SPLIT: energy shift=  0.020000 Ry

   izeta = 1
                 lambda =    1.000000
                     rc =    3.305093
                 energy =   -1.725984
                kinetic =    1.585887
    potential(screened) =   -3.311870
       potential(ionic) =  -11.297253

   izeta = 2
                 rmatch =    2.510382
              splitnorm =    0.150000
                 energy =   -1.479369
                kinetic =    2.381175
    potential(screened) =   -3.860544
       potential(ionic) =  -12.454987

SPLIT: Orbitals with angular momentum L= 1

SPLIT: Basis orbitals for state 2p

SPLIT: PAO cut-off radius determined from an
SPLIT: energy shift=  0.020000 Ry

   izeta = 1
                 lambda =    1.000000
                     rc =    3.937239
                 energy =   -0.658357
                kinetic =    4.694922
    potential(screened) =   -5.353279
       potential(ionic) =  -13.084446

   izeta = 2
                 rmatch =    2.541963
              splitnorm =    0.150000
                 energy =   -0.362807
                kinetic =    7.020572
    potential(screened) =   -7.383379
       potential(ionic) =  -16.009048

POLgen: Perturbative polarization orbital with L=  2

POLgen: Polarization orbital for state 2p

   izeta = 1
                     rc =    3.937239
                 energy =    2.394886
                kinetic =    4.807985
    potential(screened) =   -2.413099
       potential(ionic) =   -8.736318
atom: Total number of Sankey-type orbitals: 13

atm_pop: Valence configuration (for local Pseudopot. screening):
 2s( 2.00)                                                            
 2p( 4.00)                                                            
Vna: chval, zval:    6.00000   6.00000

Vna:  Cut-off radius for the neutral-atom potential:   3.937239

atom: _________________________________________________________________________

prinput: Basis input ----------------------------------------------------------

PAO.BasisType split     

%block ChemicalSpeciesLabel
    1   79 Au                      # Species index, atomic number, species label
    2    7 N                       # Species index, atomic number, species label
    3    6 C                       # Species index, atomic number, species label
    4    1 H                       # Species index, atomic number, species label
    5    8 O                       # Species index, atomic number, species label
%endblock ChemicalSpeciesLabel

%block PAO.Basis                 # Define Basis set
Au                    2                    # Species label, number of l-shells
 n=6   0   1                         # n, l, Nzeta 
   6.083   
   1.000   
 n=5   2   1                         # n, l, Nzeta 
   4.287   
   1.000   
N                     2                    # Species label, number of l-shells
 n=2   0   2                         # n, l, Nzeta 
   3.684      2.905   
   1.000      1.000   
 n=2   1   2 P   1                   # n, l, Nzeta, Polarization, NzetaPol
   4.280      2.942   
   1.000      1.000   
C                     2                    # Species label, number of l-shells
 n=2   0   2                         # n, l, Nzeta 
   4.192      3.432   
   1.000      1.000   
 n=2   1   2 P   1                   # n, l, Nzeta, Polarization, NzetaPol
   4.870      3.475   
   1.000      1.000   
H                     1                    # Species label, number of l-shells
 n=1   0   2 P   1                   # n, l, Nzeta, Polarization, NzetaPol
   4.828      3.855   
   1.000      1.000   
O                     2                    # Species label, number of l-shells
 n=2   0   2                         # n, l, Nzeta 
   3.305      2.510   
   1.000      1.000   
 n=2   1   2 P   1                   # n, l, Nzeta, Polarization, NzetaPol
   3.937      2.542   
   1.000      1.000   
%endblock PAO.Basis

prinput: ----------------------------------------------------------------------

coor:   Atomic-coordinates input format  =     Cartesian coordinates
coor:                                          (in units of alat)

siesta: WARNING: XV file not found

siesta: Atomic coordinates (Bohr) and species
siesta:      2.71925   2.71925   0.00000  1        1
siesta:      8.15774   2.71925   0.00000  1        2
siesta:      8.15774   8.15774   0.00000  1        3
siesta:      2.71925   8.15774   0.00000  1        4
siesta:      5.43849   0.00000   3.84559  1        5
siesta:      5.43849   5.43849   3.84559  1        6
siesta:      2.71925   2.71925   7.69119  1        7
siesta:      8.15774   2.71925   7.69119  1        8
siesta:     10.87698   5.43849   3.84559  1        9
siesta:      8.15774   8.15774   7.69119  1       10
siesta:      0.00000   5.43849   3.84559  1       11
siesta:      2.71925   8.15774   7.69119  1       12
siesta:      5.43849  10.87698   3.84559  1       13
siesta:      5.43849   0.00000  11.53678  1       14
siesta:      5.43849   5.43849  11.53678  1       15
siesta:      2.71925   2.71925  15.38238  1       16
siesta:      8.15774   2.71925  15.38238  1       17
siesta:     10.87698   5.43849  11.53678  1       18
siesta:      8.15774   8.15774  15.38238  1       19
siesta:      0.00000   5.43849  11.53678  1       20
siesta:      2.71925   8.15774  15.38238  1       21
siesta:      5.43849  10.87698  11.53678  1       22
siesta:      5.43849   0.00000  19.22797  1       23
siesta:      5.43849   5.43849  19.22797  1       24
siesta:     10.87698   5.43849  19.22797  1       25
siesta:      0.00000   5.43849  19.22797  1       26
siesta:      5.43849  10.87698  19.22797  1       27
siesta:      2.71925   2.71925  23.07357  1       28
siesta:      8.15774   2.71925  23.07357  1       29
siesta:      8.15774   8.15774  23.07357  1       30
siesta:      2.71925   8.15774  23.07357  1       31
siesta:      5.43849   0.00000  26.91916  1       32
siesta:      5.43849   5.43849  26.91916  1       33
siesta:      2.71925   2.71925  30.76475  1       34
siesta:      8.15774   2.71925  30.76475  1       35
siesta:     10.87698   5.43849  26.91916  1       36
siesta:      8.15774   8.15774  30.76475  1       37
siesta:      0.00000   5.43849  26.91916  1       38
siesta:      2.71925   8.15774  30.76475  1       39
siesta:      5.43849  10.87698  26.91916  1       40
siesta:      5.43849   0.00000  34.61035  1       41
siesta:      5.43849   5.43849  34.61035  1       42
siesta:      2.71925   2.71925  38.45594  1       43
siesta:      8.15774   2.71925  38.45594  1       44
siesta:     10.87698   5.43849  34.61035  1       45
siesta:      8.15774   8.15774  38.45594  1       46
siesta:      0.00000   5.43849  34.61035  1       47
siesta:      2.71925   8.15774  38.45594  1       48
siesta:      5.43849  10.87698  34.61035  1       49
siesta:      5.43849   0.00000  42.30154  1       50
siesta:      5.43849   5.43849  42.30154  1       51
siesta:     10.87698   5.43849  42.30154  1       52
siesta:      0.00000   5.43849  42.30154  1       53
siesta:      5.43849  10.87698  42.30154  1       54
siesta:      2.71925   2.71925  46.14713  1       55
siesta:      8.15774   2.71925  46.14713  1       56
siesta:      8.15774   8.15774  46.14713  1       57
siesta:      2.71925   8.15774  46.14713  1       58
siesta:      5.43849   5.43849  49.99272  1       59
siesta:      4.78333   2.16129  80.41708  4       60
siesta:      3.58019   3.43838  81.17753  2       61
siesta:      2.98451   3.41870  85.17738  1       62
siesta:      1.84653   4.90870  79.61042  3       63
siesta:      0.69590   3.61718  78.47515  4       64
siesta:      3.24609   6.55297  77.67003  3       65
siesta:      2.31961   6.91631  75.55645  5       66
siesta:      0.11745   6.53181  81.27547  3       67
siesta:     -1.18719   7.60291  80.08473  4       68
siesta:     -0.99677   5.32839  82.53613  4       69
siesta:      1.21063   7.86558  82.41866  4       70
siesta:      5.45347   7.61017  78.40433  2       71
siesta:      6.11307   7.26085  80.16713  4       72
siesta:      6.92047   9.19875  76.69286  3       73
siesta:      5.66758  10.63183  75.88932  4       74
siesta:      7.92527   7.69946  74.40489  3       75
siesta:      8.10491   8.72545  72.31378  5       76
siesta:      9.09009  10.48578  78.11419  3       77
siesta:     10.16612  11.67427  76.81109  4       78
siesta:      8.34491  11.68432  79.62602  4       79
siesta:     10.37771   9.09078  78.93847  4       80
siesta:      8.67547   5.29607  74.85555  2       81
siesta:      8.16191   4.46402  76.50561  4       82
siesta:      9.52362   3.64363  72.81512  3       83
siesta:     10.88874   4.68817  71.67265  4       84
siesta:      7.35600   2.98898  70.98501  3       85
siesta:      7.71424   2.98556  68.67444  5       86
siesta:     10.76273   1.26065  73.90139  3       87
siesta:     11.35670   0.01261  72.36433  4       88
siesta:     12.43190   1.77306  75.00992  4       89
siesta:      9.44604   0.23350  75.12152  4       90
siesta:      5.09373   2.43721  72.03445  2       91
siesta:      4.90803   2.39176  73.94754  4       92
siesta:      2.88299   1.94887  70.45868  3       93
siesta:      3.32203   0.42723  69.12929  4       94
siesta:      2.22805   4.24253  68.77971  3       95
siesta:      1.56899   3.94871  66.56210  5       96
siesta:      0.62608   1.18973  72.10702  3       97
siesta:     -1.01715   0.81063  70.91207  4       98
siesta:      1.06083  -0.52603  73.17839  4       99
siesta:      0.14276   2.70052  73.43513  4      100
siesta:      2.37616   6.54521  69.89024  2      101
siesta:      2.76835   6.68566  71.76822  4      102
siesta:      1.79528   8.83966  68.48002  3      103
siesta:     -0.02704   8.60950  67.52937  4      104
siesta:      3.69247   9.33775  66.32325  3      105
siesta:      2.97672  10.23566  64.29621  5      106
siesta:      1.68970  11.11532  70.27145  3      107
siesta:      1.22974  12.82432  69.20390  4      108
siesta:      0.23759  10.83061  71.71605  4      109
siesta:      3.51174  11.39331  71.21182  4      110
siesta:      6.15262   8.81792  66.82171  2      111
siesta:      6.67707   8.23402  68.57624  4      112
siesta:      8.10106   9.23488  64.92376  3      113
siesta:      7.79832  11.08318  64.04775  4      114
siesta:      7.97079   7.33044  62.72293  3      115
siesta:      8.66007   7.93908  60.57814  5      116
siesta:     10.72995   9.14266  66.14135  3      117
siesta:     12.17726   9.47086  64.70327  4      118
siesta:     10.90102  10.59638  67.60135  4      119
siesta:     11.06620   7.29446  67.00908  4      120
siesta:      7.18447   4.96869  63.29683  2      121
siesta:      6.69059   4.52170  65.09775  4      122
siesta:      7.11183   3.00969  61.38463  3      123
siesta:      8.96648   2.85022  60.47980  4      124
siesta:      5.20631   3.66064  59.30615  3      125
siesta:      3.25691   4.83014  59.58501  5      126
siesta:      6.37970   0.47094  62.58698  3      127
siesta:      6.33267  -1.01570  61.15326  4      128
siesta:      7.76194  -0.04324  64.03467  4      129
siesta:      4.51779   0.61532  63.47647  4      130
siesta:      5.91297   2.63058  57.08110  5      131
siesta:      2.98451   3.41870  54.40584  1      132
siesta:      5.43849   5.43849  89.59050  1      133
siesta:      2.71925   8.15774  93.43609  1      134
siesta:      8.15774   8.15774  93.43609  1      135
siesta:      8.15774   2.71925  93.43609  1      136
siesta:      2.71925   2.71925  93.43609  1      137
siesta:      5.43849  10.87698  97.28168  1      138
siesta:      0.00000   5.43849  97.28168  1      139
siesta:     10.87698   5.43849  97.28168  1      140
siesta:      5.43849   5.43849  97.28168  1      141
siesta:      5.43849   0.00000  97.28168  1      142
siesta:      5.43849  10.87698 104.97287  1      143
siesta:      2.71925   8.15774 101.12728  1      144
siesta:      0.00000   5.43849 104.97287  1      145
siesta:      8.15774   8.15774 101.12728  1      146
siesta:     10.87698   5.43849 104.97287  1      147
siesta:      8.15774   2.71925 101.12728  1      148
siesta:      2.71925   2.71925 101.12728  1      149
siesta:      5.43849   5.43849 104.97287  1      150
siesta:      5.43849   0.00000 104.97287  1      151
siesta:      5.43849  10.87698 112.66406  1      152
siesta:      2.71925   8.15774 108.81847  1      153
siesta:      0.00000   5.43849 112.66406  1      154
siesta:      8.15774   8.15774 108.81847  1      155
siesta:     10.87698   5.43849 112.66406  1      156
siesta:      8.15774   2.71925 108.81847  1      157
siesta:      2.71925   2.71925 108.81847  1      158
siesta:      5.43849   5.43849 112.66406  1      159
siesta:      5.43849   0.00000 112.66406  1      160
siesta:      2.71925   8.15774 116.50965  1      161
siesta:      8.15774   8.15774 116.50965  1      162
siesta:      8.15774   2.71925 116.50965  1      163
siesta:      2.71925   2.71925 116.50965  1      164
siesta:      5.43849  10.87698 120.35525  1      165
siesta:      0.00000   5.43849 120.35525  1      166
siesta:     10.87698   5.43849 120.35525  1      167
siesta:      5.43849   5.43849 120.35525  1      168
siesta:      5.43849   0.00000 120.35525  1      169
siesta:      5.43849  10.87698 128.04644  1      170
siesta:      2.71925   8.15774 124.20084  1      171
siesta:      0.00000   5.43849 128.04644  1      172
siesta:      8.15774   8.15774 124.20084  1      173
siesta:     10.87698   5.43849 128.04644  1      174
siesta:      8.15774   2.71925 124.20084  1      175
siesta:      2.71925   2.71925 124.20084  1      176
siesta:      5.43849   5.43849 128.04644  1      177
siesta:      5.43849   0.00000 128.04644  1      178
siesta:      5.43849  10.87698 135.73762  1      179
siesta:      2.71925   8.15774 131.89203  1      180
siesta:      0.00000   5.43849 135.73762  1      181
siesta:      8.15774   8.15774 131.89203  1      182
siesta:     10.87698   5.43849 135.73762  1      183
siesta:      8.15774   2.71925 131.89203  1      184
siesta:      2.71925   2.71925 131.89203  1      185
siesta:      5.43849   5.43849 135.73762  1      186
siesta:      5.43849   0.00000 135.73762  1      187
siesta:      2.71925   8.15774 139.58322  1      188
siesta:      8.15774   8.15774 139.58322  1      189
siesta:      8.15774   2.71925 139.58322  1      190
siesta:      2.71925   2.71925 139.58322  1      191

siesta: System type = molecule  

initatomlists: Number of atoms, orbitals, and projectors:    191  1363  1971

coxmol: Writing XMOL coordinates into file em.xyz                                                              

siesta: ******************** Simulation parameters ****************************
siesta:
siesta: The following are some of the parameters of the simulation.
siesta: A complete list of the parameters used, including default values,
siesta: can be found in file out.fdf
siesta:
redata: Spin configuration                          = spin-orbit
redata: Number of spin components                   = 8
redata: Time-Reversal Symmetry                      = F
redata: Spin-spiral                                 = F
############################################################
#              Spin-orbit coupling is in beta              #
#           Several options may not be compatible          #
############################################################
redata: Long output                                 =   F
redata: Number of Atomic Species                    =        5
redata: Charge density info will appear in .RHO file
redata: Write Mulliken Pop.                         = Atomic and Orbital charges
redata: Mesh Cutoff                                 =   350.0000 Ry
redata: Net charge of the system                    =     0.0000 |e|
redata: Min. number of SCF Iter                     =        0
redata: Max. number of SCF Iter                     =      300
redata: SCF mix quantity                            = Hamiltonian
redata: Mix DM or H after convergence               =   F
redata: Recompute H after scf cycle                 =   F
redata: Mix DM in first SCF step                    =   T
redata: Write Pulay info on disk                    =   F
redata: New DM Mixing Weight                        =     0.0300
redata: New DM Occupancy tolerance                  = 0.000000000001
redata: No kicks to SCF
redata: DM Mixing Weight for Kicks                  =     0.5000
redata: Require Harris convergence for SCF          =   F
redata: Harris energy tolerance for SCF             =     0.000100 eV
redata: Require DM convergence for SCF              =   T
redata: DM tolerance for SCF                        =     0.0001
redata: Require EDM convergence for SCF             =   F
redata: EDM tolerance for SCF                       =     0.001000 eV
redata: Require H convergence for SCF               =   T
redata: Hamiltonian tolerance for SCF               =     0.001000 eV
redata: Require (free) Energy convergence for SCF   =   F
redata: (free) Energy tolerance for SCF             =     0.000100 eV
redata: Using Saved Data (generic)                  =   F
redata: Use continuation files for DM               =   T
redata: Neglect nonoverlap interactions             =   F
redata: Method of Calculation                       = Diagonalization
redata: Divide and Conquer                          =   F
redata: Electronic Temperature                      =   299.9869 K
redata: Fix the spin of the system                  =   F
redata: Dynamics option                             = Single-point calculation
mix.SCF: Pulay mixing                            = Pulay
mix.SCF:    Variant                              = stable
mix.SCF:    History steps                        = 5
mix.SCF:    Linear mixing weight                 =     0.030000
mix.SCF:    Mixing weight                        =     0.030000
mix.SCF:    SVD condition                        = 0.1000E-07
mix.SCF: Spin-component mixing                   all
redata: ***********************************************************************

%block SCF.Mixers
  Pulay
%endblock SCF.Mixers

%block SCF.Mixer.Pulay
  # Mixing method
  method pulay
  variant stable

  # Mixing options
  weight 0.0300
  weight.linear 0.0300
  history 5
%endblock SCF.Mixer.Pulay

DM_history_depth set to one: no extrapolation allowed by default for geometry relaxation
Size of DM history Fstack: 1
Total number of electrons:  1522.000000
Total ionic charge:  1522.000000

Time-reversal symmetry not used.

siesta: k-grid: Number of k-points =    27
siesta: k-grid: Cutoff (effective) =    45.000 Ang
siesta: k-grid: Supercell and displacements
siesta: k-grid:    3   0   0      0.000
siesta: k-grid:    0   3   0      0.000
siesta: k-grid:    0   0   3      0.000


                     ====================================
                        Single-point calculation
                     ====================================

outcell: Unit cell vectors (Ang):
       30.000000    0.000000    0.000000
        0.000000   30.000000    0.000000
        0.000000    0.000000   84.471707

outcell: Cell vector modules (Ang)   :   30.000000   30.000000   84.471707
outcell: Cell angles (23,13,12) (deg):     90.0000     90.0000     90.0000
outcell: Cell volume (Ang**3)        :  76024.5362
<dSpData1D:S at geom step 0
  <sparsity:sparsity for geom step 0
    nrows_g=1363 nrows=1363 sparsity=.1690 nnzs=314029, refcount: 8>
  <dData1D:(new from dSpData1D) n=314029, refcount: 1>
refcount: 1>
new_DM -- step:     1
Initializing Density Matrix...

Attempting to read DM from file... Failed...
DM filled with atomic data:
<dSpData2D:DM initialized from atoms
  <sparsity:sparsity for geom step 0
    nrows_g=1363 nrows=1363 sparsity=.1690 nnzs=314029, refcount: 9>
  <dData2D:DM n=314029 m=8, refcount: 1>
refcount: 1>

initDM: Initial spin polarization (x,y,z) =    0.000000    0.000000  234.000001

No. of atoms with KB's overlaping orbs in proc 0. Max # of overlaps:     191     190
New grid distribution:   1
           1       1:  180    1:  180    1:  480

InitMesh: MESH =   360 x   360 x   960 =   124416000
InitMesh: (bp) =   180 x   180 x   480 =    15552000
InitMesh: Mesh cutoff (required, used) =   350.000   356.962 Ry
ExtMesh (bp) on 0 =   260 x   260 x   556 =    37585600
PhiOnMesh: Number of (b)points on node 0 =             15552000
PhiOnMesh: nlist on node 0 =             17360607

stepf: Fermi-Dirac step function

siesta: Program's energy decomposition (eV):
siesta: Ebs     =    -15357.230613
siesta: Eions   =    131298.676415
siesta: Ena     =      3347.447818
siesta: Ekin    =     83692.030666
siesta: Enl     =    -52390.214256
siesta: Eso     =       -25.208193
siesta: Eldau   =         0.000000
siesta: DEna    =      -175.965714
siesta: DUscf   =       388.978840
siesta: DUext   =         0.000000
siesta: Exc     =    -19642.458017
siesta: eta*DQ  =         0.000000
siesta: Emadel  =         0.000000
siesta: Emeta   =         0.000000
siesta: Emolmec =         0.000000
siesta: Ekinion =         0.000000
siesta: Eharris =   -115586.228600
siesta: Etot    =   -116104.065271
siesta: FreeEng =   -116104.157939

        iscf     Eharris(eV)        E_KS(eV)     FreeEng(eV)     dDmax    Ef(eV) dHmax(eV)
   scf:    1  -115586.228600  -116104.065271  -116104.157939  0.964469 -0.886743 46.884599
timer: Routine,Calls,Time,% = IterSCF        1    3046.818  98.85
   scf:    2  -116291.009435  -116234.585837  -116234.707679  0.602930 -1.164308 34.664080
   scf:    3  -116261.054668  -116364.763449  -116364.902295  0.398201 -1.532232 18.228476
   scf:    4  -116409.524517  -116395.475246  -116395.644330  0.267384 -1.489931 10.265618
   scf:    5  -116401.928801  -116401.517828  -116401.698743  0.149106 -1.519708  8.154517
   scf:    6  -116399.508250  -116402.442201  -116402.616221  0.160974 -1.591465  8.568292
   scf:    7  -116409.737627  -116407.642638  -116407.820995  0.070809 -1.699548  5.622041
   scf:    8  -116321.090967  -116383.551434  -116383.796068  0.540987 -2.108144 23.444738
   scf:    9  -116419.328328  -116405.984545  -116406.199100  0.429908 -2.069326 15.431572
   scf:   10  -116409.076085  -116413.555007  -116413.709957  0.410752 -1.975693  8.493763
   scf:   11  -116328.529525  -116386.867996  -116387.070639  0.662610 -2.213211 27.577838
   scf:   12  -116419.201354  -116416.686760  -116416.850764  0.610664 -2.143852  3.690544
   scf:   13  -116416.751810  -116417.147746  -116417.296632  0.039168 -2.132893  2.363366
   scf:   14  -116418.241376  -116417.745246  -116417.896766  0.017459 -2.192922  2.107736
   scf:   15  -116419.579469  -116418.908048  -116419.045953  0.068172 -2.449337  2.479788
   scf:   16  -116419.575877  -116419.293568  -116419.423237  0.024560 -2.484388  1.427474
   scf:   17  -116419.618713  -116419.468446  -116419.598455  0.012946 -2.514626  1.276713
   scf:   18  -116420.112479  -116419.822064  -116419.949999  0.046485 -2.594157  1.188016
   scf:   19  -116420.061004  -116419.980958  -116420.109974  0.012702 -2.600062  0.762206
   scf:   20  -116420.006123  -116420.012826  -116420.139994  0.015764 -2.616668  0.939701
   scf:   21  -116420.075971  -116420.070011  -116420.201219  0.008992 -2.593349  0.786070
   scf:   22  -116420.137704  -116420.108425  -116420.239455  0.006062 -2.592517  0.635889
   scf:   23  -116420.153992  -116420.133845  -116420.266051  0.004530 -2.582945  0.657540
   scf:   24  -116420.179989  -116420.160332  -116420.291861  0.006750 -2.580624  0.381904
   scf:   25  -116420.179367  -116420.170731  -116420.302362  0.003644 -2.577455  0.288815
   scf:   26  -116420.179645  -116420.175512  -116420.307373  0.002179 -2.575830  0.248478
   scf:   27  -116420.182765  -116420.179528  -116420.311664  0.002284 -2.573992  0.210163
   scf:   28  -116420.184884  -116420.182341  -116420.314996  0.001372 -2.571824  0.217201
   scf:   29  -116420.189823  -116420.186246  -116420.319637  0.002007 -2.568130  0.217448
   scf:   30  -116420.197359  -116420.191934  -116420.326401  0.003562 -2.562027  0.214391
   scf:   31  -116420.203101  -116420.197955  -116420.333651  0.004255 -2.553967  0.206845
   scf:   32  -116420.209627  -116420.203862  -116420.340537  0.005376 -2.545589  0.161172
   scf:   33  -116420.209601  -116420.206779  -116420.343916  0.003655 -2.541471  0.126258
   scf:   34  -116420.208859  -116420.207874  -116420.345054  0.001628 -2.540365  0.103671
   scf:   35  -116420.210321  -116420.209165  -116420.346513  0.002248 -2.539645  0.083375
   scf:   36  -116420.210179  -116420.209702  -116420.347227  0.001110 -2.539310  0.081012
   scf:   37  -116420.211316  -116420.210504  -116420.348131  0.001652 -2.538426  0.072276
   scf:   38  -116420.212308  -116420.211388  -116420.349129  0.001887 -2.537683  0.069478
   scf:   39  -116420.214525  -116420.212916  -116420.350564  0.003171 -2.537017  0.054433
   scf:   40  -116420.213574  -116420.213261  -116420.350872  0.000724 -2.537177  0.055005
   scf:   41  -116420.216216  -116420.214690  -116420.352078  0.003541 -2.537037  0.046189
   scf:   42  -116420.215066  -116420.214884  -116420.352157  0.000338 -2.537595  0.045757
   scf:   43  -116420.215716  -116420.215294  -116420.352531  0.001292 -2.537834  0.041895
   scf:   44  -116420.215222  -116420.215258  -116420.352478  0.000248 -2.538112  0.038493
   scf:   45  -116420.216642  -116420.215916  -116420.353132  0.002553 -2.538184  0.027182
   scf:   46  -116420.216963  -116420.216414  -116420.353569  0.002020 -2.538198  0.024349
   scf:   47  -116420.216844  -116420.216625  -116420.353736  0.000926 -2.538334  0.023481
   scf:   48  -116420.217943  -116420.217246  -116420.354162  0.002751 -2.538818  0.019275
   scf:   49  -116420.217480  -116420.217361  -116420.354224  0.000554 -2.538980  0.019795
   scf:   50  -116420.217738  -116420.217542  -116420.354380  0.001268 -2.538955  0.019441
   scf:   51  -116420.217783  -116420.217660  -116420.354452  0.000672 -2.538984  0.017903
   scf:   52  -116420.217827  -116420.217741  -116420.354525  0.000706 -2.538902  0.015780
   scf:   53  -116420.218022  -116420.217876  -116420.354629  0.001118 -2.538798  0.015156
   scf:   54  -116420.218148  -116420.218003  -116420.354739  0.001361 -2.538753  0.012602
   scf:   55  -116420.218211  -116420.218101  -116420.354824  0.001182 -2.538645  0.012925
   scf:   56  -116420.218284  -116420.218186  -116420.354899  0.001224 -2.538590  0.010150
   scf:   57  -116420.218246  -116420.218215  -116420.354927  0.000496 -2.538547  0.009629
   scf:   58  -116420.218265  -116420.218240  -116420.354952  0.000458 -2.538473  0.009264
   scf:   59  -116420.218266  -116420.218253  -116420.354964  0.000232 -2.538443  0.009052
   scf:   60  -116420.218316  -116420.218283  -116420.354992  0.000595 -2.538338  0.008948
   scf:   61  -116420.218310  -116420.218296  -116420.355004  0.000271 -2.538313  0.008681
   scf:   62  -116420.218371  -116420.218330  -116420.355039  0.000864 -2.538285  0.007334
   scf:   63  -116420.218362  -116420.218346  -116420.355053  0.000400 -2.538285  0.006863
   scf:   64  -116420.218405  -116420.218372  -116420.355083  0.000933 -2.538255  0.005945
   scf:   65  -116420.218390  -116420.218380  -116420.355093  0.000381 -2.538280  0.005511
   scf:   66  -116420.218413  -116420.218395  -116420.355110  0.000665 -2.538267  0.004638
   scf:   67  -116420.218424  -116420.218409  -116420.355120  0.000384 -2.538255  0.004056
   scf:   68  -116420.218436  -116420.218422  -116420.355129  0.000476 -2.538240  0.003923
   scf:   69  -116420.218431  -116420.218426  -116420.355132  0.000124 -2.538234  0.003850
   scf:   70  -116420.218453  -116420.218439  -116420.355141  0.000523 -2.538220  0.003345
   scf:   71  -116420.218470  -116420.218453  -116420.355150  0.000554 -2.538213  0.002778
   scf:   72  -116420.218453  -116420.218453  -116420.355150  0.000017 -2.538216  0.002776
   scf:   73  -116420.218464  -116420.218458  -116420.355152  0.000189 -2.538223  0.002900
   scf:   74  -116420.218461  -116420.218460  -116420.355154  0.000094 -2.538242  0.002678
   scf:   75  -116420.218465  -116420.218462  -116420.355155  0.000141 -2.538241  0.002379
   scf:   76  -116420.218474  -116420.218468  -116420.355159  0.000321 -2.538270  0.002027
   scf:   77  -116420.218507  -116420.218483  -116420.355167  0.001044 -2.538294  0.001321
   scf:   78  -116420.218489  -116420.218486  -116420.355167  0.000239 -2.538290  0.000751
   scf:   79  -116420.218487  -116420.218486  -116420.355168  0.000142 -2.538300  0.000727
   scf:   80  -116420.218487  -116420.218486  -116420.355168  0.000112 -2.538298  0.000598
   scf:   81  -116420.218478  -116420.218482  -116420.355169  0.000099 -2.538297  0.000456

SCF Convergence by DM+H criterion
max |DM_out - DM_in|         :     0.0000992133
max |H_out - H_in|      (eV) :     0.0004560839
SCF cycle converged after 81 iterations

Using DM_out to compute the final energy and forces
No. of atoms with KB's overlaping orbs in proc 0. Max # of overlaps:     191     190

siesta: E_KS(eV) =          -116420.2185

siesta: E_KS - E_eggbox =   -116420.2185
siesta: Total spin polarization (x,y,z) =    -0.000127    0.000057    0.001660
siesta: S , {S} =     0.001666   -0.000127    0.000057    0.001660

siesta: Atomic forces (eV/Ang):
----------------------------------------
   Tot    0.050972    0.022730   -0.001089
----------------------------------------
   Max    2.725239
   Res    0.493025    sqrt( Sum f_i^2 / 3N )
----------------------------------------
   Max    2.725239    constrained

Stress-tensor-Voigt (kbar):        0.79        0.80        1.89        0.04        0.03       -0.02
(Free)E + p*V (eV/cell)  -116475.4540
Target enthalpy (eV/cell)  -116420.3552

moments: Atomic and Orbital Populations and Magnetic Moments:

Species: Au                  

Atom    Orb           Charge    sqrt(<S>^2)        <(Sx,Sy,Sz)>     sqrt(<L>^2)      <(Lx,Ly,Lz)>
----------------------------------------------------------------------------------------------------
   1    1  6s         1.3069                  -0.000 -0.000  0.000               0.000  0.000  0.000
   1    2  5dxy       1.9574                   0.000  0.000 -0.000              -0.000 -0.000  0.000
   1    3  5dyz       1.9344                  -0.000  0.001  0.000               0.000 -0.000  0.000
   1    4  5dz2       1.9672                  -0.000 -0.000  0.000               0.000  0.000  0.000
   1    5  5dxz       1.9344                   0.001 -0.000  0.000              -0.000  0.000  0.000
   1    6  5dx2-y2    1.9160                  -0.001 -0.001  0.000              -0.000 -0.000  0.000
----------------------------------------------------------------------------------------------------
   1      Total      11.0163         0.000    -0.000 -0.000  0.000       0.000   0.000  0.000  0.000

   2    7  6s         1.3088                   0.000 -0.000  0.000               0.000  0.000  0.000
   2    8  5dxy       1.9577                  -0.000  0.000 -0.000               0.000 -0.000 -0.000
   2    9  5dyz       1.9342                   0.000  0.001  0.000              -0.000 -0.000  0.000
   2   10  5dz2       1.9670                   0.000 -0.000  0.000              -0.000  0.000  0.000
   2   11  5dxz       1.9347                  -0.001 -0.000 -0.000               0.000  0.000  0.000
   2   12  5dx2-y2    1.9148                   0.001 -0.001 -0.000              -0.000 -0.000 -0.000
----------------------------------------------------------------------------------------------------
   2      Total      11.0172         0.000     0.000 -0.000  0.000       0.000  -0.000 -0.000 -0.000

   3   13  6s         1.3019                   0.000  0.000 -0.000               0.000  0.000  0.000
   3   14  5dxy       1.9581                  -0.000 -0.000  0.000              -0.000  0.000  0.000
   3   15  5dyz       1.9348                   0.000 -0.001 -0.000              -0.000  0.000 -0.000
   3   16  5dz2       1.9671                   0.000  0.000  0.000              -0.000 -0.000  0.000
   3   17  5dxz       1.9350                  -0.001  0.000 -0.000              -0.000 -0.000 -0.000
   3   18  5dx2-y2    1.9167                   0.001  0.001  0.000              -0.000 -0.000  0.000
----------------------------------------------------------------------------------------------------
   3      Total      11.0137         0.000     0.000  0.000 -0.000       0.000  -0.000 -0.000  0.000

   4   19  6s         1.3102                  -0.000  0.000  0.000               0.000  0.000  0.000
   4   20  5dxy       1.9575                   0.000 -0.000 -0.000              -0.000  0.000 -0.000
   4   21  5dyz       1.9344                  -0.000 -0.001 -0.000               0.000  0.000  0.000
   4   22  5dz2       1.9670                  -0.000  0.000  0.000               0.000 -0.000  0.000
   4   23  5dxz       1.9341                   0.001  0.000  0.000              -0.000 -0.000  0.000
   4   24  5dx2-y2    1.9146                  -0.001  0.001 -0.000              -0.000 -0.000 -0.000
----------------------------------------------------------------------------------------------------
   4      Total      11.0179         0.000    -0.000  0.000  0.000       0.000  -0.000 -0.000 -0.000

   5   25  6s         1.3495                  -0.000 -0.000 -0.000               0.000  0.000  0.000
   5   26  5dxy       1.9604                   0.000  0.000  0.000              -0.000  0.000  0.000
   5   27  5dyz       1.9668                  -0.000 -0.000  0.000              -0.000  0.000 -0.000
   5   28  5dz2       1.9637                   0.000 -0.000 -0.000              -0.000  0.000  0.000
   5   29  5dxz       1.8600                  -0.000 -0.000 -0.000              -0.000 -0.000 -0.000
   5   30  5dx2-y2    1.9417                   0.000  0.000  0.000              -0.000 -0.000  0.000
----------------------------------------------------------------------------------------------------
   5      Total      11.0420         0.000    -0.000 -0.000  0.000       0.000  -0.000 -0.000  0.000

   6   31  6s         1.1407                  -0.000 -0.000 -0.000               0.000  0.000  0.000
   6   32  5dxy       1.9444                   0.000  0.000  0.000              -0.000 -0.000  0.000
   6   33  5dyz       1.9255                  -0.000 -0.000  0.000              -0.000 -0.000 -0.000
   6   34  5dz2       1.9484                   0.000  0.000 -0.000              -0.000 -0.000  0.000
   6   35  5dxz       1.9245                  -0.000  0.000 -0.000              -0.000 -0.000 -0.000
   6   36  5dx2-y2    1.9603                  -0.000 -0.000  0.000              -0.000 -0.000  0.000
----------------------------------------------------------------------------------------------------
   6      Total      10.8437         0.000    -0.000  0.000  0.000       0.000  -0.000 -0.000  0.000

   7   37  6s         1.2968                   0.000  0.000  0.000               0.000  0.000  0.000
   7   38  5dxy       1.9353                   0.000  0.000  0.000               0.000  0.000  0.000
   7   39  5dyz       1.9061                  -0.000  0.000 -0.000              -0.000  0.000 -0.000
   7   40  5dz2       1.9701                   0.000  0.000 -0.000              -0.000 -0.000  0.000
   7   41  5dxz       1.9061                   0.000 -0.000 -0.000               0.000 -0.000 -0.000
   7   42  5dx2-y2    1.9471                  -0.000 -0.000  0.000              -0.000 -0.000  0.000
----------------------------------------------------------------------------------------------------
   7      Total      10.9615         0.000     0.000  0.000  0.000       0.000  -0.000 -0.000  0.000

   8   43  6s         1.3011                  -0.000  0.000  0.000               0.000  0.000  0.000
   8   44  5dxy       1.9349                  -0.000  0.000  0.000              -0.000 -0.000 -0.000
   8   45  5dyz       1.9055                   0.000  0.000 -0.000               0.000 -0.000  0.000
   8   46  5dz2       1.9704                  -0.000  0.000  0.000               0.000 -0.000  0.000
   8   47  5dxz       1.9055                  -0.000 -0.000  0.000              -0.000 -0.000  0.000
   8   48  5dx2-y2    1.9468                   0.000 -0.000  0.000              -0.000 -0.000 -0.000
----------------------------------------------------------------------------------------------------
   8      Total      10.9642         0.000    -0.000  0.000  0.000       0.000   0.000 -0.000 -0.000

   9   49  6s         1.3484                   0.000 -0.000 -0.000               0.000  0.000  0.000
   9   50  5dxy       1.9606                  -0.000  0.000  0.000              -0.000 -0.000  0.000
   9   51  5dyz       1.8611                   0.000 -0.000 -0.000              -0.000 -0.000 -0.000
   9   52  5dz2       1.9636                   0.000  0.000 -0.000              -0.000 -0.000  0.000
   9   53  5dxz       1.9659                   0.000 -0.000 -0.000              -0.000 -0.000 -0.000
   9   54  5dx2-y2    1.9419                  -0.000 -0.000  0.000               0.000 -0.000  0.000
----------------------------------------------------------------------------------------------------
   9      Total      11.0415         0.000     0.000 -0.000 -0.000       0.000  -0.000 -0.000  0.000

  10   55  6s         1.2991                  -0.000 -0.000  0.000               0.000  0.000  0.000
  10   56  5dxy       1.9348                  -0.000 -0.000 -0.000              -0.000 -0.000 -0.000
  10   57  5dyz       1.9058                   0.000 -0.000  0.000               0.000 -0.000  0.000
  10   58  5dz2       1.9706                  -0.000 -0.000  0.000               0.000  0.000  0.000
  10   59  5dxz       1.9058                  -0.000  0.000  0.000              -0.000  0.000  0.000
  10   60  5dx2-y2    1.9470                   0.000  0.000  0.000              -0.000 -0.000 -0.000
----------------------------------------------------------------------------------------------------
  10      Total      10.9631         0.000    -0.000 -0.000  0.000       0.000   0.000  0.000  0.000

  11   61  6s         1.3493                  -0.000 -0.000 -0.000               0.000  0.000  0.000
  11   62  5dxy       1.9604                   0.000  0.000  0.000               0.000 -0.000  0.000
  11   63  5dyz       1.8605                  -0.000 -0.000 -0.000              -0.000 -0.000 -0.000
  11   64  5dz2       1.9637                  -0.000  0.000 -0.000               0.000 -0.000  0.000
  11   65  5dxz       1.9666                  -0.000 -0.000 -0.000               0.000 -0.000 -0.000
  11   66  5dx2-y2    1.9417                   0.000  0.000  0.000              -0.000 -0.000  0.000
----------------------------------------------------------------------------------------------------
  11      Total      11.0422         0.000    -0.000 -0.000  0.000       0.000  -0.000 -0.000  0.000

  12   67  6s         1.3003                   0.000 -0.000  0.000               0.000  0.000  0.000
  12   68  5dxy       1.9350                   0.000 -0.000  0.000              -0.000 -0.000 -0.000
  12   69  5dyz       1.9057                  -0.000 -0.000  0.000              -0.000 -0.000  0.000
  12   70  5dz2       1.9703                   0.000 -0.000  0.000              -0.000  0.000  0.000
  12   71  5dxz       1.9056                   0.000  0.000 -0.000              -0.000  0.000  0.000
  12   72  5dx2-y2    1.9468                  -0.000  0.000  0.000              -0.000 -0.000 -0.000
----------------------------------------------------------------------------------------------------
  12      Total      10.9637         0.000     0.000 -0.000  0.000       0.000  -0.000  0.000 -0.000

  13   73  6s         1.3493                  -0.000  0.000 -0.000               0.000  0.000  0.000
  13   74  5dxy       1.9605                   0.000 -0.000  0.000              -0.000 -0.000  0.000
  13   75  5dyz       1.9663                  -0.000  0.000 -0.000              -0.000 -0.000 -0.000
  13   76  5dz2       1.9636                   0.000  0.000 -0.000              -0.000 -0.000  0.000
  13   77  5dxz       1.8603                  -0.000  0.000 -0.000              -0.000 -0.000 -0.000
  13   78  5dx2-y2    1.9418                  -0.000 -0.000  0.000              -0.000  0.000  0.000
----------------------------------------------------------------------------------------------------
  13      Total      11.0419         0.000    -0.000  0.000 -0.000       0.000  -0.000 -0.000  0.000

  14   79  6s         1.3577                   0.000  0.000 -0.000               0.000  0.000  0.000
  14   80  5dxy       1.9650                  -0.000  0.000  0.000              -0.000 -0.000  0.000
  14   81  5dyz       1.9500                  -0.000 -0.000 -0.000              -0.000 -0.000 -0.000
  14   82  5dz2       1.9693                   0.000  0.000  0.000              -0.000 -0.000  0.000
  14   83  5dxz       1.8635                  -0.000 -0.000 -0.000              -0.000 -0.000 -0.000
  14   84  5dx2-y2    1.9425                   0.000 -0.000  0.000              -0.000  0.000  0.000
----------------------------------------------------------------------------------------------------
  14      Total      11.0481         0.000    -0.000  0.000 -0.000       0.000  -0.000 -0.000  0.000

  15   85  6s         1.1456                  -0.000 -0.000  0.000               0.000  0.000  0.000
  15   86  5dxy       1.9603                  -0.000 -0.000  0.000              -0.000  0.000  0.000
  15   87  5dyz       1.9309                   0.000 -0.000  0.000              -0.000  0.000 -0.000
  15   88  5dz2       1.9560                   0.000  0.000 -0.000              -0.000 -0.000  0.000
  15   89  5dxz       1.9303                  -0.000  0.000 -0.000              -0.000 -0.000 -0.000
  15   90  5dx2-y2    1.9610                   0.000 -0.000  0.000               0.000 -0.000  0.000
----------------------------------------------------------------------------------------------------
  15      Total      10.8841         0.000     0.000  0.000  0.000       0.000  -0.000 -0.000  0.000

  16   91  6s         1.3080                  -0.000 -0.000 -0.000               0.000  0.000  0.000
  16   92  5dxy       1.9360                  -0.000 -0.000 -0.000               0.000  0.000  0.000
  16   93  5dyz       1.9070                   0.000  0.000 -0.000              -0.000  0.000 -0.000
  16   94  5dz2       1.9733                  -0.000 -0.000 -0.000              -0.000 -0.000  0.000
  16   95  5dxz       1.9070                   0.000  0.000 -0.000               0.000 -0.000 -0.000
  16   96  5dx2-y2    1.9447                  -0.000 -0.000  0.000              -0.000 -0.000  0.000
----------------------------------------------------------------------------------------------------
  16      Total      10.9760         0.000    -0.000 -0.000 -0.000       0.000  -0.000 -0.000 -0.000

  17   97  6s         1.3146                   0.000 -0.000  0.000               0.000  0.000  0.000
  17   98  5dxy       1.9353                   0.000 -0.000 -0.000              -0.000 -0.000 -0.000
  17   99  5dyz       1.9061                  -0.000  0.000 -0.000               0.000 -0.000 -0.000
  17  100  5dz2       1.9737                   0.000 -0.000 -0.000               0.000 -0.000  0.000
  17  101  5dxz       1.9061                  -0.000  0.000 -0.000              -0.000 -0.000 -0.000
  17  102  5dx2-y2    1.9442                   0.000 -0.000 -0.000              -0.000 -0.000 -0.000
----------------------------------------------------------------------------------------------------
  17      Total      10.9800         0.000     0.000 -0.000  0.000       0.000   0.000 -0.000 -0.000

  18  103  6s         1.3555                  -0.000  0.000 -0.000               0.000  0.000  0.000
  18  104  5dxy       1.9648                  -0.000 -0.000  0.000               0.000 -0.000  0.000
  18  105  5dyz       1.8630                   0.000 -0.000 -0.000              -0.000 -0.000 -0.000
  18  106  5dz2       1.9692                  -0.000  0.000 -0.000               0.000  0.000  0.000
  18  107  5dxz       1.9524                   0.000  0.000  0.000               0.000 -0.000 -0.000
  18  108  5dx2-y2    1.9421                   0.000 -0.000  0.000              -0.000 -0.000  0.000
----------------------------------------------------------------------------------------------------
  18      Total      11.0471         0.000    -0.000  0.000  0.000       0.000   0.000 -0.000  0.000

  19  109  6s         1.3154                   0.000  0.000  0.000               0.000  0.000  0.000
  19  110  5dxy       1.9350                   0.000  0.000 -0.000               0.000  0.000 -0.000
  19  111  5dyz       1.9060                  -0.000 -0.000 -0.000               0.000  0.000 -0.000
  19  112  5dz2       1.9740                   0.000  0.000  0.000               0.000  0.000  0.000
  19  113  5dxz       1.9060                  -0.000 -0.000 -0.000               0.000  0.000 -0.000
  19  114  5dx2-y2    1.9443                   0.000  0.000  0.000               0.000  0.000 -0.000
----------------------------------------------------------------------------------------------------
  19      Total      10.9806         0.000     0.000  0.000  0.000       0.000   0.000  0.000 -0.000

  20  115  6s         1.3581                   0.000  0.000 -0.000               0.000  0.000  0.000
  20  116  5dxy       1.9651                   0.000 -0.000  0.000              -0.000 -0.000  0.000
  20  117  5dyz       1.8641                  -0.000 -0.000 -0.000              -0.000 -0.000 -0.000
  20  118  5dz2       1.9694                   0.000  0.000  0.000              -0.000 -0.000  0.000
  20  119  5dxz       1.9493                  -0.000 -0.000 -0.000              -0.000  0.000 -0.000
  20  120  5dx2-y2    1.9426                  -0.000  0.000  0.000               0.000  0.000  0.000
----------------------------------------------------------------------------------------------------
  20      Total      11.0484         0.000     0.000 -0.000 -0.000       0.000  -0.000 -0.000  0.000

  21  121  6s         1.3126                  -0.000  0.000  0.000               0.000  0.000  0.000
  21  122  5dxy       1.9356                  -0.000  0.000 -0.000              -0.000 -0.000 -0.000
  21  123  5dyz       1.9064                   0.000 -0.000 -0.000              -0.000 -0.000 -0.000
  21  124  5dz2       1.9736                  -0.000  0.000 -0.000              -0.000  0.000  0.000
  21  125  5dxz       1.9064                   0.000 -0.000 -0.000              -0.000  0.000 -0.000
  21  126  5dx2-y2    1.9443                  -0.000  0.000 -0.000              -0.000 -0.000 -0.000
----------------------------------------------------------------------------------------------------
  21      Total      10.9788         0.000    -0.000  0.000  0.000       0.000  -0.000  0.000 -0.000

  22  127  6s         1.3563                   0.000 -0.000 -0.000               0.000  0.000  0.000
  22  128  5dxy       1.9648                  -0.000 -0.000  0.000              -0.000  0.000  0.000
  22  129  5dyz       1.9518                   0.000  0.000  0.000              -0.000  0.000 -0.000
  22  130  5dz2       1.9692                   0.000 -0.000 -0.000               0.000  0.000  0.000
  22  131  5dxz       1.8630                  -0.000  0.000 -0.000              -0.000 -0.000 -0.000
  22  132  5dx2-y2    1.9422                  -0.000  0.000  0.000              -0.000 -0.000  0.000
----------------------------------------------------------------------------------------------------
  22      Total      11.0473         0.000     0.000 -0.000 -0.000       0.000  -0.000  0.000  0.000

  23  133  6s         1.3653                  -0.000  0.000 -0.000               0.000  0.000  0.000
  23  134  5dxy       1.9626                   0.000  0.000 -0.000              -0.000 -0.000 -0.000
  23  135  5dyz       1.9595                  -0.000 -0.000 -0.000              -0.000 -0.000  0.000
  23  136  5dz2       1.9673                  -0.000 -0.000 -0.000              -0.000 -0.000  0.000
  23  137  5dxz       1.8595                   0.000 -0.000  0.000              -0.000 -0.000  0.000
  23  138  5dx2-y2    1.9396                   0.000 -0.000 -0.000              -0.000  0.000 -0.000
----------------------------------------------------------------------------------------------------
  23      Total      11.0539         0.000    -0.000  0.000 -0.000       0.000  -0.000 -0.000  0.000

  24  139  6s         1.1398                   0.000  0.000 -0.000               0.000  0.000  0.000
  24  140  5dxy       1.9568                   0.000  0.000 -0.000              -0.000  0.000 -0.000
  24  141  5dyz       1.9285                   0.000  0.000 -0.000               0.000  0.000 -0.000
  24  142  5dz2       1.9494                  -0.000 -0.000  0.000               0.000  0.000  0.000
  24  143  5dxz       1.9282                   0.000  0.000 -0.000              -0.000  0.000 -0.000
  24  144  5dx2-y2    1.9695                   0.000  0.000 -0.000               0.000  0.000 -0.000
----------------------------------------------------------------------------------------------------
  24      Total      10.8721         0.000     0.000  0.000 -0.000       0.000   0.000  0.000 -0.000

  25  145  6s         1.3636                  -0.000 -0.000 -0.000               0.000  0.000  0.000
  25  146  5dxy       1.9625                  -0.000 -0.000 -0.000              -0.000 -0.000 -0.000
  25  147  5dyz       1.8593                   0.000  0.000  0.000               0.000 -0.000  0.000
  25  148  5dz2       1.9672                   0.000 -0.000 -0.000               0.000 -0.000  0.000
  25  149  5dxz       1.9611                  -0.000 -0.000  0.000              -0.000 -0.000  0.000
  25  150  5dx2-y2    1.9394                   0.000 -0.000 -0.000              -0.000  0.000 -0.000
----------------------------------------------------------------------------------------------------
  25      Total      11.0531         0.000    -0.000 -0.000 -0.000       0.000   0.000 -0.000  0.000

  26  151  6s         1.3648                   0.000 -0.000 -0.000               0.000  0.000  0.000
  26  152  5dxy       1.9627                   0.000 -0.000 -0.000              -0.000 -0.000 -0.000
  26  153  5dyz       1.8599                  -0.000  0.000  0.000              -0.000 -0.000  0.000
  26  154  5dz2       1.9673                   0.000 -0.000 -0.000              -0.000 -0.000  0.000
  26  155  5dxz       1.9592                  -0.000 -0.000 -0.000              -0.000 -0.000  0.000
  26  156  5dx2-y2    1.9397                  -0.000  0.000 -0.000               0.000  0.000 -0.000
----------------------------------------------------------------------------------------------------
  26      Total      11.0537         0.000     0.000 -0.000 -0.000       0.000  -0.000 -0.000  0.000

  27  157  6s         1.3638                  -0.000 -0.000 -0.000               0.000  0.000  0.000
  27  158  5dxy       1.9625                  -0.000 -0.000 -0.000              -0.000 -0.000 -0.000
  27  159  5dyz       1.9609                  -0.000 -0.000  0.000              -0.000 -0.000  0.000
  27  160  5dz2       1.9672                  -0.000  0.000 -0.000              -0.000  0.000  0.000
  27  161  5dxz       1.8592                   0.000  0.000  0.000              -0.000  0.000  0.000
  27  162  5dx2-y2    1.9394                  -0.000  0.000 -0.000               0.000 -0.000 -0.000
----------------------------------------------------------------------------------------------------
  27      Total      11.0531         0.000    -0.000 -0.000 -0.000       0.000  -0.000  0.000  0.000

  28  163  6s         1.2927                  -0.000 -0.000 -0.000               0.000  0.000  0.000
  28  164  5dxy       1.9339                   0.000  0.000 -0.000               0.000  0.000 -0.000
  28  165  5dyz       1.9126                  -0.000 -0.000 -0.000               0.000  0.000 -0.000
  28  166  5dz2       1.9723                   0.000  0.000  0.000               0.000  0.000  0.000
  28  167  5dxz       1.9127                  -0.000 -0.000 -0.000               0.000  0.000 -0.000
[...]

 116  860  2s         1.0752                  -0.000 -0.000 -0.000               0.000  0.000  0.000
 116  861  2s         0.4407                   0.000  0.000  0.000               0.000  0.000  0.000
 116  862  2py        1.6863                   0.000 -0.000 -0.000               0.000  0.000 -0.000
 116  863  2pz        1.2317                   0.000  0.000 -0.000               0.000  0.000  0.000
 116  864  2px        1.3408                  -0.000  0.000 -0.000               0.000  0.000 -0.000
 116  865  2py       -0.0099                  -0.000 -0.000  0.000              -0.000  0.000 -0.000
 116  866  2pz        0.1420                  -0.000  0.000  0.000              -0.000  0.000  0.000
 116  867  2px        0.0446                   0.000 -0.000  0.000               0.000  0.000 -0.000
 116  868  2Pdxy      0.0016                  -0.000 -0.000 -0.000               0.000 -0.000  0.000
 116  869  2Pdyz      0.0088                  -0.000 -0.000 -0.000              -0.000 -0.000 -0.000
 116  870  2Pdz2      0.0128                   0.000  0.000 -0.000              -0.000  0.000  0.000
 116  871  2Pdxz      0.0118                  -0.000  0.000 -0.000               0.000  0.000 -0.000
 116  872  2Pdx2-y    0.0021                   0.000 -0.000 -0.000               0.000  0.000  0.000
----------------------------------------------------------------------------------------------------
 116      Total       5.9884         0.000     0.000 -0.000  0.000       0.000   0.000  0.000 -0.000

 126  950  2s         1.0311                   0.000 -0.000 -0.000               0.000  0.000  0.000
 126  951  2s         0.4705                  -0.000  0.000  0.000               0.000  0.000  0.000
 126  952  2py        1.2757                  -0.000 -0.000 -0.000               0.000  0.000  0.000
 126  953  2pz        1.6182                   0.000 -0.000 -0.000               0.000 -0.000  0.000
 126  954  2px        1.1988                  -0.000  0.000 -0.000               0.000 -0.000  0.000
 126  955  2py        0.0985                   0.000 -0.000  0.000               0.000  0.000  0.000
 126  956  2pz        0.0274                  -0.000  0.000  0.000               0.000  0.000  0.000
 126  957  2px        0.1524                   0.000 -0.000  0.000               0.000  0.000  0.000
 126  958  2Pdxy      0.0110                   0.000 -0.000 -0.000              -0.000 -0.000  0.000
 126  959  2Pdyz      0.0028                  -0.000 -0.000  0.000              -0.000 -0.000  0.000
 126  960  2Pdz2      0.0056                   0.000 -0.000  0.000              -0.000  0.000  0.000
 126  961  2Pdxz      0.0074                   0.000 -0.000 -0.000              -0.000  0.000  0.000
 126  962  2Pdx2-y    0.0131                  -0.000 -0.000 -0.000               0.000 -0.000  0.000
----------------------------------------------------------------------------------------------------
 126      Total       5.9127         0.000     0.000 -0.000 -0.000       0.000   0.000 -0.000  0.000

 131  991  2s         1.2786                   0.000 -0.000 -0.000               0.000  0.000  0.000
 131  992  2s         0.3296                  -0.000  0.000  0.000               0.000  0.000  0.000
 131  993  2py        1.6437                   0.000  0.000  0.000               0.000  0.000 -0.000
 131  994  2pz        1.1454                   0.001 -0.000  0.000               0.000 -0.000  0.000
 131  995  2px        1.5709                  -0.001 -0.001  0.000               0.000 -0.000 -0.000
 131  996  2py       -0.0283                  -0.000 -0.000  0.000              -0.000  0.000  0.000
 131  997  2pz        0.1141                  -0.002  0.000  0.000              -0.000  0.000  0.000
 131  998  2px       -0.0328                   0.001  0.000  0.000               0.000  0.000  0.000
 131  999  2Pdxy      0.0030                   0.000 -0.000 -0.000              -0.000  0.000  0.000
 131 1000  2Pdyz      0.0090                  -0.000 -0.000 -0.000               0.000  0.000  0.000
 131 1001  2Pdz2      0.0101                   0.000 -0.000  0.000               0.000 -0.000  0.000
 131 1002  2Pdxz      0.0076                   0.000  0.000 -0.000              -0.000 -0.000  0.000
 131 1003  2Pdx2-y    0.0043                   0.000  0.000 -0.000              -0.000 -0.000  0.000
----------------------------------------------------------------------------------------------------
 131      Total       6.0551         0.000     0.000 -0.000  0.000       0.000   0.000 -0.000 -0.000

----------------------------------------------------------------------------------------------------
 Sum               1522.0000         0.001    -0.000  0.000  0.001       0.001  -0.000 -0.000  0.001


coxmol: Writing XMOL coordinates into file em.xyz                                                              

siesta: Program's energy decomposition (eV):
siesta: Ebs     =    -10321.196399
siesta: Eions   =    131298.676415
siesta: Ena     =      3347.447818
siesta: Ekin    =     84122.374511
siesta: Enl     =    -52994.829413
siesta: Eso     =       -16.047362
siesta: Eldau   =         0.000000
siesta: DEna    =        51.877929
siesta: DUscf   =        41.776327
siesta: DUext   =         0.000000
siesta: Exc     =    -19674.141878
siesta: eta*DQ  =         0.000000
siesta: Emadel  =         0.000000
siesta: Emeta   =         0.000000
siesta: Emolmec =         0.000000
siesta: Ekinion =         0.000000
siesta: Eharris =   -116420.218478
siesta: Etot    =   -116420.218482
siesta: FreeEng =   -116420.355169

siesta: Final energy (eV):
siesta:  Band Struct. =  -10321.196399
siesta:       Kinetic =   84122.374511
siesta:       Hartree =  539368.307485
siesta:       Eldau   =       0.000000
siesta:       Eso     =     -16.047362
siesta:    Ext. field =       0.000000
siesta:   Exch.-corr. =  -19674.141878
siesta:  Ion-electron =-1147413.712528
siesta:       Ion-ion =  427193.001290
siesta:       Ekinion =       0.000000
siesta:         Total = -116420.218482
siesta:         Fermi =      -2.538297

siesta: Atomic forces (eV/Ang):
siesta:      1    0.280738    0.278983    0.243293
siesta:      2   -0.275122    0.264807    0.247246
siesta:      3   -0.279071   -0.273479    0.275754
siesta:      4    0.270666   -0.273715    0.236936
siesta:      5   -0.004640    0.601479    0.351691
siesta:      6    0.000635    0.002069   -0.704182
siesta:      7   -0.622761   -0.628608   -0.012946
siesta:      8    0.636188   -0.630066   -0.000523
siesta:      9   -0.595705    0.001494    0.326278
siesta:     10    0.624713    0.624887    0.000974
siesta:     11    0.597623   -0.003388    0.354878
siesta:     12   -0.627338    0.639464   -0.004708
siesta:     13    0.000255   -0.599438    0.336775
siesta:     14   -0.004066    0.939632   -0.065943
siesta:     15    0.012931    0.008353    0.030232
siesta:     16   -0.563704   -0.568004    0.036320
siesta:     17    0.578004   -0.567242    0.033277
siesta:     18   -0.954805   -0.001028   -0.081092
siesta:     19    0.569962    0.567984    0.031563
siesta:     20    0.931870   -0.002615   -0.067519
siesta:     21   -0.565355    0.578298    0.035631
siesta:     22   -0.002377   -0.952063   -0.075022
siesta:     23   -0.003661    0.868924   -0.055879
siesta:     24    0.010945    0.008145    0.015087
siesta:     25   -0.880202   -0.001411   -0.036068
siesta:     26    0.866377   -0.003304   -0.066488
siesta:     27   -0.001780   -0.879697   -0.039725
siesta:     28   -0.527022   -0.526758   -0.000692
siesta:     29    0.528353   -0.528204   -0.008615
siesta:     30    0.523002    0.524883   -0.018284
siesta:     31   -0.527853    0.529799   -0.004423
siesta:     32    0.006147    0.835224    0.056953
siesta:     33   -0.003827   -0.000817   -0.032826
siesta:     34   -0.599513   -0.594304   -0.021725
siesta:     35    0.582312   -0.601053   -0.023331
siesta:     36   -0.823635    0.001787    0.077612
siesta:     37    0.588662    0.591243   -0.029072
siesta:     38    0.840562    0.003586    0.048888
siesta:     39   -0.603109    0.581619   -0.023467
siesta:     40    0.004239   -0.827039    0.077446
siesta:     41    0.008115    0.973191    0.027352
siesta:     42   -0.007056   -0.003568    0.066176
siesta:     43   -0.527563   -0.524957   -0.024141
siesta:     44    0.529104   -0.532109   -0.004134
siesta:     45   -0.949431    0.002815    0.007295
siesta:     46    0.542125    0.539345    0.008968
siesta:     47    0.979743    0.007540    0.031351
siesta:     48   -0.531051    0.522688   -0.010499
siesta:     49    0.003637   -0.951118    0.017863
siesta:     50   -0.007551    0.505129   -0.194687
siesta:     51    0.021822    0.014360    0.392888
siesta:     52   -0.529162   -0.021278   -0.274425
siesta:     53    0.501995   -0.003621   -0.190066
siesta:     54   -0.026563   -0.514442   -0.264502
siesta:     55    0.169379    0.174389   -0.202432
siesta:     56   -0.188350    0.231143   -0.206623
siesta:     57   -0.283298   -0.299988    0.040176
siesta:     58    0.224347   -0.193079   -0.213752
siesta:     59   -0.540667   -0.343334    0.435253
siesta:     60   -0.040372   -0.459032   -0.119677
siesta:     61   -1.063945    1.953859    1.072826
siesta:     62    1.376151    0.862581   -0.487151
siesta:     63    1.561415   -0.593645    1.489395
siesta:     64   -0.742941   -0.256521   -0.717831
siesta:     65   -0.667099    0.063243    0.047946
siesta:     66    0.481062   -0.196687   -0.278988
siesta:     67    0.489477   -0.374460   -1.053127
siesta:     68   -0.368061    0.354987   -0.416170
siesta:     69    0.005605   -0.502601    0.456911
siesta:     70    0.444748    0.145166    0.376008
siesta:     71    0.528279    0.410309   -1.064448
siesta:     72   -0.080651   -0.545569    0.790401
siesta:     73    0.297930   -0.987227    0.711575
siesta:     74   -0.459262    0.388314   -0.463739
siesta:     75   -0.241869    0.633953   -0.542140
siesta:     76   -0.111254   -0.505475    0.479795
siesta:     77   -0.872100   -0.563774   -0.555290
siesta:     78    0.257918    0.259827   -0.363681
siesta:     79   -0.186165    0.279982    0.367507
siesta:     80    0.317487   -0.396488    0.164901
siesta:     81    0.136282   -0.461461   -0.754082
siesta:     82   -0.080271    0.017449    0.606257
siesta:     83   -0.768010   -0.338413    0.853023
siesta:     84    0.320462    0.455479   -0.514450
siesta:     85    0.184242    0.155111   -0.729366
siesta:     86   -0.216967    0.138404    0.637637
siesta:     87   -0.478016    1.089917   -0.423775
siesta:     88    0.074648   -0.296559   -0.372208
siesta:     89    0.383707    0.121939    0.291701
siesta:     90   -0.384511   -0.327910    0.294447
siesta:     91   -0.266212   -0.037170   -0.560035
siesta:     92   -0.116530    0.196695    0.290294
siesta:     93   -0.102173    0.767557    0.871086
siesta:     94    0.240833   -0.346182   -0.573820
siesta:     95   -0.082482    0.055396   -0.719673
siesta:     96    0.447400    0.025256    0.798654
siesta:     97    0.980356    0.305036   -0.596712
siesta:     98   -0.360709   -0.048648   -0.320998
siesta:     99    0.090027   -0.447023    0.269785
siesta:    100   -0.089814    0.595879    0.409963
siesta:    101   -0.024094    0.248767   -0.576637
siesta:    102    0.117070    0.094910    0.845873
siesta:    103    0.974672   -0.145494    0.668139
siesta:    104   -0.474284   -0.172858   -0.518828
siesta:    105   -0.466772    0.239198   -0.904700
siesta:    106    0.475154   -0.311980    1.030461
siesta:    107    0.026573   -0.962145   -0.666563
siesta:    108   -0.071875    0.378237   -0.326406
siesta:    109   -0.326352   -0.119905    0.453726
siesta:    110    0.623637    0.013255    0.248792
siesta:    111    0.357006   -0.027757   -0.600535
siesta:    112    0.207746   -0.217234    0.686762
siesta:    113   -0.117940   -0.979488    0.741970
siesta:    114   -0.277705    0.527467   -0.465286
siesta:    115    0.102383    0.294671   -0.761108
siesta:    116   -0.198301   -0.373723    0.923258
siesta:    117   -1.086409    0.043597   -0.443489
siesta:    118    0.304371    0.041555   -0.429134
siesta:    119    0.004320    0.330479    0.474378
siesta:    120    0.000933   -0.607081    0.242309
siesta:    121    0.096784   -0.293914   -0.722535
siesta:    122   -0.334038   -0.139764    0.662649
siesta:    123   -0.510874    0.189669    1.018220
siesta:    124    0.541239    0.108322   -0.408837
siesta:    125   -0.440710   -0.373022   -2.725239
siesta:    126    0.179733    0.022794    0.719487
siesta:    127    0.263063    1.062733   -0.451467
siesta:    128   -0.026678   -0.290922   -0.451456
siesta:    129    0.358371   -0.065962    0.522091
siesta:    130   -0.633097    0.214975    0.283646
siesta:    131   -0.255200    0.291717    1.612446
siesta:    132    1.303334    0.500915   -0.113406
siesta:    133   -0.850873   -0.657472   -0.847240
siesta:    134    0.192854   -0.140824    0.252996
siesta:    135   -0.170604   -0.183494    0.019317
siesta:    136   -0.131968    0.194837    0.229019
siesta:    137    0.149068    0.155250    0.231362
siesta:    138   -0.052637   -0.577412    0.293214
siesta:    139    0.522340   -0.014539    0.177414
siesta:    140   -0.590148   -0.044888    0.311171
siesta:    141    0.033304    0.028336   -0.365506
siesta:    142   -0.021529    0.523795    0.184310
siesta:    143    0.015843   -0.922921    0.004770
siesta:    144   -0.546120    0.547370   -0.001087
siesta:    145    0.976861    0.009580   -0.038727
siesta:    146    0.561429    0.559368   -0.024673
siesta:    147   -0.918071    0.012671    0.014089
siesta:    148    0.549980   -0.546115   -0.006499
siesta:    149   -0.543001   -0.542674    0.034068
siesta:    150   -0.015402   -0.011561   -0.042230
siesta:    151    0.012601    0.970396   -0.039307
siesta:    152    0.008115   -0.818816   -0.089777
siesta:    153   -0.610824    0.566676    0.016665
siesta:    154    0.849769    0.003721   -0.036660
siesta:    155    0.578743    0.583699    0.020853
siesta:    156   -0.814056    0.007109   -0.091352
siesta:    157    0.566061   -0.610314    0.017003
siesta:    158   -0.591741   -0.586896    0.016709
siesta:    159   -0.010995   -0.008065    0.031504
siesta:    160    0.004787    0.846691   -0.046660
siesta:    161   -0.534227    0.525990   -0.003668
siesta:    162    0.520856    0.523884    0.019263
siesta:    163    0.524305   -0.535983    0.000998
siesta:    164   -0.524683   -0.525004   -0.020068
siesta:    165   -0.002660   -0.879603    0.028971
siesta:    166    0.851591   -0.006734    0.085009
siesta:    167   -0.879669   -0.001795    0.027443
siesta:    168    0.018161    0.015571   -0.020533
siesta:    169   -0.007560    0.856265    0.075942
siesta:    170   -0.003686   -0.969841    0.077948
siesta:    171   -0.564764    0.601966   -0.032130
siesta:    172    0.925724   -0.006490    0.058429
siesta:    173    0.573942    0.572840   -0.025565
siesta:    174   -0.970515   -0.002608    0.084406
siesta:    175    0.599539   -0.566979   -0.030979
siesta:    176   -0.567714   -0.573451   -0.037970
siesta:    177    0.021706    0.018023   -0.021487
siesta:    178   -0.007517    0.933391    0.057449
siesta:    179   -0.001722   -0.605334   -0.317543
siesta:    180   -0.633266    0.654038    0.007456
siesta:    181    0.605078   -0.005765   -0.361056
siesta:    182    0.631123    0.633265   -0.007991
siesta:    183   -0.599874   -0.001099   -0.308104
siesta:    184    0.651498   -0.637666    0.003624
siesta:    185   -0.624615   -0.629480    0.024355
siesta:    186   -0.002071   -0.000768    0.700350
siesta:    187   -0.006541    0.609581   -0.359159
siesta:    188    0.258504   -0.266653   -0.241151
siesta:    189   -0.273977   -0.268721   -0.309721
siesta:    190   -0.270137    0.253378   -0.249068
siesta:    191    0.281468    0.277962   -0.238987
siesta: ----------------------------------------
siesta:    Tot    0.050972    0.022730   -0.001089

siesta: Stress tensor (static) (eV/Ang**3):
siesta:     0.000495    0.000027   -0.000010
siesta:     0.000027    0.000500    0.000018
siesta:    -0.000010    0.000018    0.001180

siesta: Cell volume =      76024.536210 Ang**3

siesta: Pressure (static):
siesta:                Solid            Molecule  Units
siesta:          -0.00000789         -0.00000000  Ry/Bohr**3
siesta:          -0.00072475         -0.00000043  eV/Ang**3
siesta:          -1.16119174         -0.00069327  kBar
(Free)E+ p_basis*V_orbitals  =     -116375.568556
(Free)Eharris+ p_basis*V_orbitals  =     -116375.568552
siesta: Total spin polarization (x,y,z) =    -0.000127    0.000057    0.001660
siesta: S , {S} =     0.001666   -0.000127    0.000057    0.001660

siesta: Electric dipole (a.u.)  =    1.097954   -1.226185    0.971899
siesta: Electric dipole (Debye) =    2.790723   -3.116655    2.470323

dhscf: Vacuum level (max, mean) =    3.459989    0.029654 eV

timer: Elapsed wall time (sec) =  243006.869
timer: CPU execution times (sec):

Routine            Calls   Time/call    Tot.time        %
siesta                 1  242993.820  242993.820   100.00
Setup                  1       0.261       0.261     0.00
bands                  1       0.000       0.000     0.00
KSV_init               1       0.000       0.000     0.00
IterGeom               1  242970.231  242970.231    99.99
state_init             1       1.451       1.451     0.00
hsparse                1       0.027       0.027     0.00
overlap                1       1.370       1.370     0.00
Setup_H0               1      33.730      33.730     0.01
naefs                  2       0.001       0.003     0.00
MolMec                 2       0.000       0.000     0.00
kinefsm                2       0.721       1.441     0.00
nlefsm                 2       4.110       8.219     0.00
spinorb                2       0.141       0.283     0.00
DHSCF_Init             1      24.235      24.235     0.01
DHSCF1                 1       0.248       0.248     0.00
INITMESH               1       0.000       0.000     0.00
DHSCF2                 1      23.986      23.986     0.01
REMESH                 1       3.470       3.470     0.00
REORD                679       0.170     115.521     0.05
PHION                  1       8.922       8.922     0.00
COMM_BSC             674       0.170     114.688     0.05
POISON                85       7.006     595.552     0.25
fft                  170       2.805     476.895     0.20
IterSCF               81    2998.509  242879.222    99.95
setup_H               82      26.991    2213.243     0.91
DHSCF                 84      27.008    2268.680     0.93
DHSCF3                84      26.671    2240.398     0.92
rhoofd                84       4.982     418.527     0.17
CellXC                84       2.978     250.133     0.10
cellXC                84       2.978     250.133     0.10
vmat                  83       4.043     335.558     0.14
writeHSX              83       0.059       4.905     0.00
compute_dm            81    2971.108  240659.739    99.04
diagon                81    2971.099  240658.981    99.04
cdiag               4374      38.920  170236.582    70.06
cdiag1              4374       3.448   15081.247     6.21
cdiag2              4374       8.240   36041.217    14.83
cdiag3              4374      23.702  103674.348    42.67
cdiag4              4374       3.530   15439.275     6.35
MIXER                 80       0.055       4.379     0.00
PostSCF                1      55.797      55.797     0.02
DHSCF4                 1      28.281      28.281     0.01
dfscf                  1      22.656      22.656     0.01
overfsm                1       0.047       0.047     0.00
state_analysis         1       0.000       0.000     0.00
siesta_move            1       0.000       0.000     0.00
Analysis               1      23.297      23.297     0.01
optical                1       0.000       0.000     0.00
  
>> End of run:  22-DEC-2023   7:52:59
Job completed
