
                           ***********************       
                           *  WELCOME TO SIESTA  *       
                           ***********************       

reinit: Reading from standard input
reinit: Dumped input in INPUT_TMP.64780
************************** Dump of input data file ****************************
SystemName  leads
SystemLabel leads
==================================================
==================================================
# SPECIES AND BASIS
# Number of species
NumberOfSpecies 1
%block ChemicalSpeciesLabel
  1  79 Au
%endblock ChemicalSpeciesLabel
%block    PAO.BasisSizes
  Au        SZ
%endblock PAO.BasisSizes
%block PS.lmax
  Au  2
%endblock PS.lmax
==================================================
==================================================
# K-points
%block kgrid_Monkhorst_Pack
3   0   0   0.0
0   3   0   0.0
0   0   100  0.0
%endblock kgrid_Monkhorst_Pack
==================================================
==================================================
# UNIT CELL AND ATOMIC POSITIONS
# UNIT CELL
LatticeConstant       1.00 Ang
%block LatticeVectors
30.00000000   0.00000000000   0.0000000000
0.000000000   30.0000000000   0.0000000000
0.000000000   0.00000000000   12.21000000
%endblock LatticeVectors
# Atomic coordinates
NumberOfAtoms 27
AtomicCoordinatesFormat Ang
%block AtomicCoordinatesAndAtomicSpecies
    1.4389620000     1.4389620000     0.0000000000   1  Au    1
    4.3168870000     1.4389620000     0.0000000000   1  Au    2
    4.3168870000     4.3168870000     0.0000000000   1  Au    3
    1.4389620000     4.3168870000     0.0000000000   1  Au    4
    2.8779250000     0.0000000000     2.0350000000   1  Au    5
    2.8779250000     2.8779250000     2.0350000000   1  Au    6
    1.4389620000     1.4389620000     4.0700000000   1  Au    7
    4.3168870000     1.4389620000     4.0700000000   1  Au    8
    5.7558490000     2.8779250000     2.0350000000   1  Au    9
    4.3168870000     4.3168870000     4.0700000000   1  Au   10
    0.0000000000     2.8779250000     2.0350000000   1  Au   11
    1.4389620000     4.3168870000     4.0700000000   1  Au   12
    2.8779250000     5.7558490000     2.0350000000   1  Au   13
    2.8779250000     0.0000000000     6.1050000000   1  Au   14
    2.8779250000     2.8779250000     6.1050000000   1  Au   15
    1.4389620000     1.4389620000     8.1400000000   1  Au   16
    4.3168870000     1.4389620000     8.1400000000   1  Au   17
    5.7558490000     2.8779250000     6.1050000000   1  Au   18
    4.3168870000     4.3168870000     8.1400000000   1  Au   19
    0.0000000000     2.8779250000     6.1050000000   1  Au   20
    1.4389620000     4.3168870000     8.1400000000   1  Au   21
    2.8779250000     5.7558490000     6.1050000000   1  Au   22
    2.8779250000     0.0000000000    10.1750000000   1  Au   23
    2.8779250000     2.8779250000    10.1750000000   1  Au   24
    5.7558490000     2.8779250000    10.1750000000   1  Au   25
    0.0000000000     2.8779250000    10.1750000000   1  Au   26
    2.8779250000     5.7558490000    10.1750000000   1  Au   27
%endblock AtomicCoordinatesAndAtomicSpecies
==================================================
==================================================
# General variables
#ElectronicTemperature  100 K
MeshCutoff           350. Ry
xc.functional         LDA           # Exchange-correlation functional
xc.authors            CA
SpinPolarized .true.
SolutionMethod Diagon
==================================================
==================================================
# SCF variables
DM.MixSCF1   T
MaxSCFIterations      300           # Maximum number of SCF iter
DM.MixingWeight       0.03          # New DM amount for next SCF cycle
DM.Tolerance          1.d-4         # Tolerance in maximum difference
DM.UseSaveDM          true          # to use continuation files
DM.NumberPulay         5
Diag.DivideAndConquer  no
Diag.ParallelOverK    yes
==================================================
==================================================
# MD variables
MD.FinalTimeStep 1
MD.TypeOfRun CG
MD.NumCGsteps     000
MD.UseSaveXV      .true.
==================================================
==================================================
# Output variables
WriteMullikenPop                1
WriteBands                      .true.
SaveRho                         .false.
SaveDeltaRho                    .false.
SaveHS                          .true.
SaveElectrostaticPotential      True
SaveTotalPotential              no
WriteCoorXmol                   .true.
WriteMDXmol                     .true.
WriteMDhistory                  .false.
WriteEigenvalues                yes
==================================================
==================================================
************************** End of input data file *****************************

reinit: -----------------------------------------------------------------------
reinit: System Name: leads
reinit: -----------------------------------------------------------------------
reinit: System Label: leads
reinit: -----------------------------------------------------------------------
Siesta Version: siesta-4.1--736
Architecture  : unknown
Compiler flags: gfortran -O2 -fPIC -ftree-vectorize -fallow-argument-mismatch
PP flags      : -DFC_HAVE_ABORT
Libraries     : libsiestaLAPACK.a libsiestaBLAS.a
SERIAL version

* Running in serial mode
>> Start of run:  15-NOV-2023  16:37:00

initatom: Reading input for the pseudopotentials and atomic orbitals ----------
Species number:   1 Atomic number:   79 Label: Au

Ground state valence configuration:   6s01  5d10
Reading pseudopotential information in formatted form from Au.psf

Valence configuration for pseudopotential generation:
6s( 1.00) rc: 2.60
6p( 0.00) rc: 2.77
5d(10.00) rc: 2.60
5f( 0.00) rc: 2.60
resizes: Read basis size for species Au = sz                  
relmxkb: Read Max KB Ang. Momentum=    2 for species Au

<basis_specs>
===============================================================================
Au                   Z=  79    Mass=  196.97        Charge= 0.17977+309
Lmxo=2 Lmxkb= 2    BasisType=split      Semic=F
L=0  Nsemic=0  Cnfigmx=6
          n=1  nzeta=1  polorb=0
            splnorm:   0.15000    
               vcte:    0.0000    
               rinn:    0.0000    
               qcoe:    0.0000    
               qyuk:    0.0000    
               qwid:   0.10000E-01
                rcs:    0.0000    
            lambdas:    1.0000    
L=1  Nsemic=0  Cnfigmx=6
L=2  Nsemic=0  Cnfigmx=5
          n=1  nzeta=1  polorb=0
            splnorm:   0.15000    
               vcte:    0.0000    
               rinn:    0.0000    
               qcoe:    0.0000    
               qyuk:    0.0000    
               qwid:   0.10000E-01
                rcs:    0.0000    
            lambdas:    1.0000    
-------------------------------------------------------------------------------
L=0  Nkbl=1  erefs: 0.17977+309
L=1  Nkbl=1  erefs: 0.17977+309
L=2  Nkbl=1  erefs: 0.17977+309
===============================================================================
</basis_specs>

atom: Called for Au                    (Z =  79)

read_vps: Pseudopotential generation method:
read_vps: ATM3      Troullier-Martins                       
Total valence charge:   11.00000

xc_check: Exchange-correlation functional:
xc_check: Ceperley-Alder
V l=0 = -2*Zval/r beyond r=  3.8789
V l=1 = -2*Zval/r beyond r=  3.8789
V l=2 = -2*Zval/r beyond r=  3.8789
All V_l potentials equal beyond r=  2.7334
This should be close to max(r_c) in ps generation
All pots = -2*Zval/r beyond r=  3.8789
Using large-core scheme for Vlocal

atom: Estimated core radius    3.87887

atom: Including non-local core corrections could be a good idea
atom: Maximum radius for 4*pi*r*r*local-pseudopot. charge    4.23357
atom: Maximum radius for r*vlocal+2*Zval:    3.92766
GHOST: No ghost state for L =  0
GHOST: No ghost state for L =  1
GHOST: No ghost state for L =  2

KBgen: Kleinman-Bylander projectors: 
   l= 0   rc=  2.837834   el= -0.325216   Ekb=  3.092226   kbcos=  0.236106
   l= 1   rc=  2.837834   el= -0.069662   Ekb=  1.440738   kbcos=  0.234618
   l= 2   rc=  2.802581   el= -0.609192   Ekb= -6.338546   kbcos= -0.737961

KBgen: Total number of  Kleinman-Bylander projectors:    9
atom: -------------------------------------------------------------------------

atom: SANKEY-TYPE ORBITALS:

SPLIT: Orbitals with angular momentum L= 0

SPLIT: Basis orbitals for state 6s

SPLIT: PAO cut-off radius determined from an
SPLIT: energy shift=  0.020000 Ry

   izeta = 1
                 lambda =    1.000000
                     rc =    6.723087
                 energy =   -0.304906
                kinetic =    0.318820
    potential(screened) =   -0.623726
       potential(ionic) =   -7.635970

SPLIT: Orbitals with angular momentum L= 2

SPLIT: Basis orbitals for state 5d

SPLIT: PAO cut-off radius determined from an
SPLIT: energy shift=  0.020000 Ry

   izeta = 1
                 lambda =    1.000000
                     rc =    4.180976
                 energy =   -0.591057
                kinetic =    5.026279
    potential(screened) =   -5.617337
       potential(ionic) =  -16.519179
atom: Total number of Sankey-type orbitals:  6

atm_pop: Valence configuration (for local Pseudopot. screening):
 6s( 1.00)                                                            
 6p( 0.00)                                                            
 5d(10.00)                                                            
Vna: chval, zval:   11.00000  11.00000

Vna:  Cut-off radius for the neutral-atom potential:   6.723087

atom: _________________________________________________________________________

prinput: Basis input ----------------------------------------------------------

PAO.BasisType split     

%block ChemicalSpeciesLabel
    1   79 Au                      # Species index, atomic number, species label
%endblock ChemicalSpeciesLabel

%block PAO.Basis                 # Define Basis set
Au                    2                    # Species label, number of l-shells
 n=6   0   1                         # n, l, Nzeta 
   6.723   
   1.000   
 n=5   2   1                         # n, l, Nzeta 
   4.181   
   1.000   
%endblock PAO.Basis

prinput: ----------------------------------------------------------------------

coor:   Atomic-coordinates input format  =     Cartesian coordinates
coor:                                          (in Angstroms)

siesta: WARNING: XV file not found

siesta: Atomic coordinates (Bohr) and species
siesta:      2.71925   2.71925   0.00000  1        1
siesta:      8.15774   2.71925   0.00000  1        2
siesta:      8.15774   8.15774   0.00000  1        3
siesta:      2.71925   8.15774   0.00000  1        4
siesta:      5.43849   0.00000   3.84559  1        5
siesta:      5.43849   5.43849   3.84559  1        6
siesta:      2.71925   2.71925   7.69119  1        7
siesta:      8.15774   2.71925   7.69119  1        8
siesta:     10.87698   5.43849   3.84559  1        9
siesta:      8.15774   8.15774   7.69119  1       10
siesta:      0.00000   5.43849   3.84559  1       11
siesta:      2.71925   8.15774   7.69119  1       12
siesta:      5.43849  10.87698   3.84559  1       13
siesta:      5.43849   0.00000  11.53678  1       14
siesta:      5.43849   5.43849  11.53678  1       15
siesta:      2.71925   2.71925  15.38238  1       16
siesta:      8.15774   2.71925  15.38238  1       17
siesta:     10.87698   5.43849  11.53678  1       18
siesta:      8.15774   8.15774  15.38238  1       19
siesta:      0.00000   5.43849  11.53678  1       20
siesta:      2.71925   8.15774  15.38238  1       21
siesta:      5.43849  10.87698  11.53678  1       22
siesta:      5.43849   0.00000  19.22797  1       23
siesta:      5.43849   5.43849  19.22797  1       24
siesta:     10.87698   5.43849  19.22797  1       25
siesta:      0.00000   5.43849  19.22797  1       26
siesta:      5.43849  10.87698  19.22797  1       27

siesta: System type = chain     

initatomlists: Number of atoms, orbitals, and projectors:     27   162   243

coxmol: Writing XMOL coordinates into file leads.xyz                                                           

siesta: ******************** Simulation parameters ****************************
siesta:
siesta: The following are some of the parameters of the simulation.
siesta: A complete list of the parameters used, including default values,
siesta: can be found in file out.fdf
siesta:
redata: Spin configuration                          = collinear
redata: Number of spin components                   = 2
redata: Time-Reversal Symmetry                      = T
redata: Spin-spiral                                 = F
redata: Long output                                 =   F
redata: Number of Atomic Species                    =        1
redata: Charge density info will appear in .RHO file
redata: Write Mulliken Pop.                         = Atomic and Orbital charges
redata: Mesh Cutoff                                 =   350.0000 Ry
redata: Net charge of the system                    =     0.0000 |e|
redata: Min. number of SCF Iter                     =        0
redata: Max. number of SCF Iter                     =      300
redata: SCF mix quantity                            = Hamiltonian
redata: Mix DM or H after convergence               =   F
redata: Recompute H after scf cycle                 =   F
redata: Mix DM in first SCF step                    =   T
redata: Write Pulay info on disk                    =   F
redata: New DM Mixing Weight                        =     0.0300
redata: New DM Occupancy tolerance                  = 0.000000000001
redata: No kicks to SCF
redata: DM Mixing Weight for Kicks                  =     0.5000
redata: Require Harris convergence for SCF          =   F
redata: Harris energy tolerance for SCF             =     0.000100 eV
redata: Require DM convergence for SCF              =   T
redata: DM tolerance for SCF                        =     0.0001
redata: Require EDM convergence for SCF             =   F
redata: EDM tolerance for SCF                       =     0.001000 eV
redata: Require H convergence for SCF               =   T
redata: Hamiltonian tolerance for SCF               =     0.001000 eV
redata: Require (free) Energy convergence for SCF   =   F
redata: (free) Energy tolerance for SCF             =     0.000100 eV
redata: Antiferro initial spin density              =   F
redata: Using Saved Data (generic)                  =   F
redata: Use continuation files for DM               =   T
redata: Neglect nonoverlap interactions             =   F
redata: Method of Calculation                       = Diagonalization
redata: Divide and Conquer                          =   F
redata: Electronic Temperature                      =   299.9869 K
redata: Fix the spin of the system                  =   F
redata: Dynamics option                             = Single-point calculation
mix.SCF: Pulay mixing                            = Pulay
mix.SCF:    Variant                              = stable
mix.SCF:    History steps                        = 5
mix.SCF:    Linear mixing weight                 =     0.030000
mix.SCF:    Mixing weight                        =     0.030000
mix.SCF:    SVD condition                        = 0.1000E-07
mix.SCF: Spin-component mixing                   all
redata: ***********************************************************************

%block SCF.Mixers
  Pulay
%endblock SCF.Mixers

%block SCF.Mixer.Pulay
  # Mixing method
  method pulay
  variant stable

  # Mixing options
  weight 0.0300
  weight.linear 0.0300
  history 5
%endblock SCF.Mixer.Pulay

DM_history_depth set to one: no extrapolation allowed by default for geometry relaxation
Size of DM history Fstack: 1
Total number of electrons:   297.000000
Total ionic charge:   297.000000
k-point displ. along   3 input, could be:     0.00    0.50
 Kpoints in:          459 . Kpoints trimmed:          455

siesta: k-grid: Number of k-points =   455
siesta: k-grid: Cutoff (effective) =    45.000 Ang
siesta: k-grid: Supercell and displacements
siesta: k-grid:    3   0   0      0.000
siesta: k-grid:    0   3   0      0.000
siesta: k-grid:    0   0 100      0.000

superc: Internal auxiliary supercell:     1 x     1 x     3  =       3
superc: Number of atoms, orbitals, and projectors:     81    486    729


                     ====================================
                        Single-point calculation
                     ====================================

superc: Internal auxiliary supercell:     1 x     1 x     3  =       3
superc: Number of atoms, orbitals, and projectors:     81    486    729

outcell: Unit cell vectors (Ang):
       30.000000    0.000000    0.000000
        0.000000   30.000000    0.000000
        0.000000    0.000000   12.210000

outcell: Cell vector modules (Ang)   :   30.000000   30.000000   12.210000
outcell: Cell angles (23,13,12) (deg):     90.0000     90.0000     90.0000
outcell: Cell volume (Ang**3)        :  10989.0000
<dSpData1D:S at geom step 0
  <sparsity:sparsity for geom step 0
    nrows_g=162 nrows=162 sparsity=.9225 nnzs=24210, refcount: 7>
  <dData1D:(new from dSpData1D) n=24210, refcount: 1>
refcount: 1>
new_DM -- step:     1
Initializing Density Matrix...

Attempting to read DM from file... Failed...
DM filled with atomic data:
<dSpData2D:DM initialized from atoms
  <sparsity:sparsity for geom step 0
    nrows_g=162 nrows=162 sparsity=.9225 nnzs=24210, refcount: 8>
  <dData2D:DM n=24210 m=2, refcount: 1>
refcount: 1>

initDM: Initial spin polarization (Qup-Qdown) =   27.000000

No. of atoms with KB's overlaping orbs in proc 0. Max # of overlaps:      45      88
New grid distribution:   1
           1       1:  180    1:  180    1:   72

InitMesh: MESH =   360 x   360 x   144 =    18662400
InitMesh: (bp) =   180 x   180 x    72 =     2332800
InitMesh: Mesh cutoff (required, used) =   350.000   384.411 Ry
ExtMesh (bp) on 0 =   268 x   268 x   156 =    11204544
PhiOnMesh: Number of (b)points on node 0 =              2332800
PhiOnMesh: nlist on node 0 =              2553075

stepf: Fermi-Dirac step function

siesta: Program's energy decomposition (eV):
siesta: Ebs     =     -2211.342717
siesta: Eions   =     26196.860726
siesta: Ena     =       205.577942
siesta: Ekin    =     18221.163090
siesta: Enl     =    -12867.087605
siesta: Eso     =         0.000000
siesta: Eldau   =         0.000000
siesta: DEna    =        19.300762
siesta: DUscf   =         4.644576
siesta: DUext   =         0.000000
siesta: Exc     =     -3904.298341
siesta: eta*DQ  =         0.000000
siesta: Emadel  =         0.000000
siesta: Emeta   =         0.000000
siesta: Emolmec =         0.000000
siesta: Ekinion =         0.000000
siesta: Eharris =    -24513.926468
siesta: Etot    =    -24517.560302
siesta: FreeEng =    -24517.578641

        iscf     Eharris(eV)        E_KS(eV)     FreeEng(eV)     dDmax    Ef(eV) dHmax(eV)
   scf:    1   -24513.926468   -24517.560302   -24517.578641  0.562977 -0.716840  4.818055
timer: Routine,Calls,Time,% = IterSCF        1      35.276  89.91
   scf:    2   -24517.941616   -24517.752707   -24517.770669  0.006388 -0.769443  4.501822
   scf:    3   -24519.789231   -24519.085720   -24519.102522  0.092266 -1.573807  0.590401
   scf:    4   -24519.071648   -24519.091775   -24519.113964  0.057183 -1.827844  1.240843
   scf:    5   -24519.440324   -24519.286028   -24519.309062  0.058069 -1.828476  0.380272
   scf:    6   -24519.270499   -24519.286716   -24519.308820  0.013023 -1.729663  0.367220
   scf:    7   -24519.322087   -24519.304067   -24519.325185  0.024511 -1.752440  0.293213
   scf:    8   -24519.314355   -24519.309982   -24519.331594  0.012665 -1.780422  0.095325
   scf:    9   -24519.310519   -24519.310271   -24519.331813  0.002188 -1.777252  0.070350
   scf:   10   -24519.310334   -24519.310373   -24519.332083  0.002272 -1.788304  0.003216
   scf:   11   -24519.310379   -24519.310376   -24519.332084  0.000099 -1.788142  0.001976
   scf:   12   -24519.310374   -24519.310375   -24519.332087  0.000326 -1.788196  0.001780
   scf:   13   -24519.310371   -24519.310373   -24519.332087  0.000073 -1.788222  0.001238
   scf:   14   -24519.310370   -24519.310371   -24519.332087  0.000020 -1.788232  0.001121
   scf:   15   -24519.310367   -24519.310369   -24519.332088  0.000028 -1.788232  0.001064
   scf:   16   -24519.310348   -24519.310359   -24519.332089  0.000262 -1.788006  0.000181
   scf:   17   -24519.310359   -24519.310359   -24519.332089  0.000002 -1.788006  0.000172

SCF Convergence by DM+H criterion
max |DM_out - DM_in|         :     0.0000015051
max |H_out - H_in|      (eV) :     0.0001715308
SCF cycle converged after 17 iterations

Using DM_out to compute the final energy and forces
No. of atoms with KB's overlaping orbs in proc 0. Max # of overlaps:      45      88

siesta: E_KS(eV) =           -24519.3104

siesta: E_KS - E_eggbox =    -24519.3104

siesta: Total spin polarization (Qup-Qdown) =    0.000186

siesta: Atomic forces (eV/Ang):
----------------------------------------
   Tot    0.007253    0.007253    0.000000
----------------------------------------
   Max    1.127436
   Res    0.710495    sqrt( Sum f_i^2 / 3N )
----------------------------------------
   Max    1.127436    constrained

Stress-tensor-Voigt (kbar):       -5.17       -5.17       -4.11       -0.00        0.00        0.00
(Free)E + p*V (eV/cell)   -24486.3239
Target enthalpy (eV/cell)   -24519.3321

mulliken: Atomic and Orbital Populations:

mulliken: Spin UP 

Species: Au                  
Atom  Qatom  Qorb
               6s      5dxy    5dyz    5dz2    5dxz    5dx2-y2 
   1  5.476   0.562   0.987   0.976   0.992   0.976   0.984
   2  5.476   0.562   0.987   0.976   0.992   0.976   0.984
   3  5.476   0.562   0.987   0.976   0.992   0.976   0.984
   4  5.476   0.562   0.987   0.976   0.992   0.976   0.984
   5  5.528   0.607   0.993   0.986   0.993   0.963   0.987
   6  5.483   0.569   0.988   0.974   0.989   0.974   0.989
   7  5.476   0.562   0.987   0.976   0.992   0.976   0.984
   8  5.476   0.562   0.987   0.976   0.992   0.976   0.984
   9  5.528   0.607   0.993   0.963   0.993   0.986   0.987
  10  5.476   0.562   0.987   0.976   0.992   0.976   0.984
  11  5.528   0.607   0.993   0.963   0.993   0.986   0.987
  12  5.476   0.562   0.987   0.976   0.992   0.976   0.984
  13  5.528   0.607   0.993   0.986   0.993   0.963   0.987
  14  5.528   0.607   0.993   0.986   0.993   0.963   0.987
  15  5.483   0.569   0.988   0.974   0.989   0.974   0.989
  16  5.476   0.562   0.987   0.976   0.992   0.976   0.984
  17  5.476   0.562   0.987   0.976   0.992   0.976   0.984
  18  5.528   0.607   0.993   0.963   0.993   0.986   0.987
  19  5.476   0.562   0.987   0.976   0.992   0.976   0.984
  20  5.528   0.607   0.993   0.963   0.993   0.986   0.987
  21  5.476   0.562   0.987   0.976   0.992   0.976   0.984
  22  5.528   0.607   0.993   0.986   0.993   0.963   0.987
  23  5.528   0.607   0.993   0.986   0.993   0.963   0.987
  24  5.483   0.569   0.988   0.974   0.989   0.974   0.989
  25  5.528   0.607   0.993   0.963   0.993   0.986   0.987
  26  5.528   0.607   0.993   0.963   0.993   0.986   0.987
  27  5.528   0.607   0.993   0.986   0.993   0.963   0.987

mulliken: Qtot =      148.500

mulliken: Spin DOWN 

Species: Au                  
Atom  Qatom  Qorb
               6s      5dxy    5dyz    5dz2    5dxz    5dx2-y2 
   1  5.476   0.562   0.987   0.976   0.992   0.976   0.984
   2  5.476   0.562   0.987   0.976   0.992   0.976   0.984
   3  5.476   0.562   0.987   0.976   0.992   0.976   0.984
   4  5.476   0.562   0.987   0.976   0.992   0.976   0.984
   5  5.528   0.607   0.993   0.986   0.993   0.963   0.987
   6  5.483   0.569   0.988   0.974   0.989   0.974   0.989
   7  5.476   0.562   0.987   0.976   0.992   0.976   0.984
   8  5.476   0.562   0.987   0.976   0.992   0.976   0.984
   9  5.528   0.607   0.993   0.963   0.993   0.986   0.987
  10  5.476   0.562   0.987   0.976   0.992   0.976   0.984
  11  5.528   0.607   0.993   0.963   0.993   0.986   0.987
  12  5.476   0.562   0.987   0.976   0.992   0.976   0.984
  13  5.528   0.607   0.993   0.986   0.993   0.963   0.987
  14  5.528   0.607   0.993   0.986   0.993   0.963   0.987
  15  5.483   0.569   0.988   0.974   0.989   0.974   0.989
  16  5.476   0.562   0.987   0.976   0.992   0.976   0.984
  17  5.476   0.562   0.987   0.976   0.992   0.976   0.984
  18  5.528   0.607   0.993   0.963   0.993   0.986   0.987
  19  5.476   0.562   0.987   0.976   0.992   0.976   0.984
  20  5.528   0.607   0.993   0.963   0.993   0.986   0.987
  21  5.476   0.562   0.987   0.976   0.992   0.976   0.984
  22  5.528   0.607   0.993   0.986   0.993   0.963   0.987
  23  5.528   0.607   0.993   0.986   0.993   0.963   0.987
  24  5.483   0.569   0.988   0.974   0.989   0.974   0.989
  25  5.528   0.607   0.993   0.963   0.993   0.986   0.987
  26  5.528   0.607   0.993   0.963   0.993   0.986   0.987
  27  5.528   0.607   0.993   0.986   0.993   0.963   0.987

mulliken: Qtot =      148.500

coxmol: Writing XMOL coordinates into file leads.xyz                                                           

siesta: Eigenvalues (eV):
  ik is    eps
   1  1  -9.98  -9.59  -9.59  -9.18  -9.18  -9.18  -9.18  -9.14  -9.14  -9.12
         -9.09  -9.08  -9.08  -8.94  -8.63  -8.63  -8.60  -8.51  -8.51  -8.39
         -8.39  -8.35  -8.35  -8.31  -8.19  -8.19  -8.17  -8.17  -8.17  -8.17
         -7.81  -7.74  -7.74  -7.70  -7.70  -7.60  -7.60  -7.60  -7.60  -7.52
         -7.52  -7.50  -7.50  -7.48  -7.48  -7.45  -7.42  -7.42  -7.42  -7.42
         -7.36  -7.31  -7.31  -7.19  -7.19  -7.18  -7.18  -7.01  -7.01  -7.01
         -7.01  -6.77  -6.72  -6.60  -6.58  -6.58  -6.52  -6.27  -6.27  -6.23
         -6.23  -6.21  -6.21  -6.21  -6.21  -6.13  -6.13  -6.13  -6.13  -6.10
         -6.10  -6.09  -6.08  -6.08  -6.03  -6.01  -6.01  -5.98  -5.98  -5.98
         -5.98  -5.96  -5.96  -5.91  -5.88  -5.86  -5.86  -5.84  -5.83  -5.83
         -5.83  -5.83  -5.79  -5.79  -5.77  -5.77  -5.71  -5.71  -5.67  -5.65
         -5.65  -5.65  -5.65  -5.64  -5.64  -5.56  -5.55  -5.55  -5.52  -5.52
         -5.51  -5.51  -5.36  -5.36  -5.35  -5.35  -5.35  -5.35  -5.35  -5.28
         -5.20  -5.20  -5.16  -5.16  -5.07  -5.00  -5.00  -4.87  -4.87  -4.72
         -4.00  -4.00  -4.00  -4.00  -3.63  -2.43  -2.43  -2.20  -1.93  -1.39
         -1.39  -0.17  -0.17  -0.16  -0.16   0.17   0.17   0.17   0.17   0.33
          0.33   5.29
   1  2  -9.98  -9.59  -9.59  -9.18  -9.18  -9.18  -9.18  -9.14  -9.14  -9.12
         -9.09  -9.08  -9.08  -8.94  -8.63  -8.63  -8.60  -8.51  -8.51  -8.39
         -8.39  -8.35  -8.35  -8.31  -8.19  -8.19  -8.17  -8.17  -8.17  -8.17
         -7.81  -7.74  -7.74  -7.70  -7.70  -7.60  -7.60  -7.60  -7.60  -7.52
         -7.52  -7.50  -7.50  -7.48  -7.48  -7.45  -7.42  -7.42  -7.42  -7.42
         -7.36  -7.31  -7.31  -7.19  -7.19  -7.18  -7.18  -7.01  -7.01  -7.01
         -7.01  -6.77  -6.72  -6.60  -6.58  -6.58  -6.52  -6.27  -6.27  -6.23
         -6.23  -6.21  -6.21  -6.21  -6.21  -6.13  -6.13  -6.13  -6.13  -6.10
         -6.10  -6.09  -6.08  -6.08  -6.03  -6.01  -6.01  -5.98  -5.98  -5.98
         -5.98  -5.96  -5.96  -5.91  -5.88  -5.86  -5.86  -5.84  -5.83  -5.83
         -5.83  -5.83  -5.79  -5.79  -5.77  -5.77  -5.71  -5.71  -5.67  -5.65
         -5.65  -5.65  -5.65  -5.64  -5.64  -5.56  -5.55  -5.55  -5.52  -5.52
         -5.51  -5.51  -5.36  -5.36  -5.35  -5.35  -5.35  -5.35  -5.35  -5.28
         -5.20  -5.20  -5.16  -5.16  -5.07  -5.00  -5.00  -4.87  -4.87  -4.72
         -4.00  -4.00  -4.00  -4.00  -3.63  -2.43  -2.43  -2.20  -1.93  -1.39
         -1.39  -0.17  -0.17  -0.16  -0.16   0.17   0.17   0.17   0.17   0.33
          0.33   5.29
   2  1  -9.98  -9.59  -9.59  -9.18  -9.18  -9.18  -9.18  -9.14  -9.14  -9.12
         -9.09  -9.08  -9.08  -8.94  -8.63  -8.63  -8.60  -8.51  -8.51  -8.39
         -8.39  -8.35  -8.35  -8.31  -8.19  -8.19  -8.17  -8.17  -8.17  -8.17
         -7.81  -7.74  -7.74  -7.70  -7.70  -7.60  -7.60  -7.60  -7.60  -7.52
         -7.52  -7.50  -7.50  -7.48  -7.48  -7.45  -7.42  -7.42  -7.42  -7.42
         -7.36  -7.31  -7.31  -7.19  -7.19  -7.18  -7.18  -7.01  -7.01  -7.01
         -7.01  -6.77  -6.72  -6.60  -6.58  -6.58  -6.52  -6.27  -6.27  -6.23
         -6.23  -6.21  -6.21  -6.21  -6.21  -6.13  -6.13  -6.13  -6.13  -6.10
         -6.10  -6.09  -6.08  -6.08  -6.03  -6.01  -6.01  -5.98  -5.98  -5.98
         -5.98  -5.96  -5.96  -5.91  -5.88  -5.86  -5.86  -5.84  -5.83  -5.83
         -5.83  -5.83  -5.79  -5.79  -5.77  -5.77  -5.71  -5.71  -5.67  -5.65
         -5.65  -5.65  -5.65  -5.64  -5.64  -5.56  -5.55  -5.55  -5.52  -5.52
         -5.51  -5.51  -5.36  -5.36  -5.35  -5.35  -5.35  -5.35  -5.35  -5.28
         -5.20  -5.20  -5.16  -5.16  -5.07  -5.00  -5.00  -4.87  -4.87  -4.72
         -4.00  -4.00  -4.00  -4.00  -3.63  -2.43  -2.43  -2.20  -1.93  -1.39
         -1.39  -0.17  -0.17  -0.16  -0.16   0.17   0.17   0.17   0.17   0.33
          0.33   5.29
   2  2  -9.98  -9.59  -9.59  -9.18  -9.18  -9.18  -9.18  -9.14  -9.14  -9.12
         -9.09  -9.08  -9.08  -8.94  -8.63  -8.63  -8.60  -8.51  -8.51  -8.39
         -8.39  -8.35  -8.35  -8.31  -8.19  -8.19  -8.17  -8.17  -8.17  -8.17
         -7.81  -7.74  -7.74  -7.70  -7.70  -7.60  -7.60  -7.60  -7.60  -7.52
         -7.52  -7.50  -7.50  -7.48  -7.48  -7.45  -7.42  -7.42  -7.42  -7.42
         -7.36  -7.31  -7.31  -7.19  -7.19  -7.18  -7.18  -7.01  -7.01  -7.01
         -7.01  -6.77  -6.72  -6.60  -6.58  -6.58  -6.52  -6.27  -6.27  -6.23
         -6.23  -6.21  -6.21  -6.21  -6.21  -6.13  -6.13  -6.13  -6.13  -6.10
         -6.10  -6.09  -6.08  -6.08  -6.03  -6.01  -6.01  -5.98  -5.98  -5.98
         -5.98  -5.96  -5.96  -5.91  -5.88  -5.86  -5.86  -5.84  -5.83  -5.83
         -5.83  -5.83  -5.79  -5.79  -5.77  -5.77  -5.71  -5.71  -5.67  -5.65
         -5.65  -5.65  -5.65  -5.64  -5.64  -5.56  -5.55  -5.55  -5.52  -5.52
         -5.51  -5.51  -5.36  -5.36  -5.35  -5.35  -5.35  -5.35  -5.35  -5.28
         -5.20  -5.20  -5.16  -5.16  -5.07  -5.00  -5.00  -4.87  -4.87  -4.72
         -4.00  -4.00  -4.00  -4.00  -3.63  -2.43  -2.43  -2.20  -1.93  -1.39
         -1.39  -0.17  -0.17  -0.16  -0.16   0.17   0.17   0.17   0.17   0.33
          0.33   5.29
   3  1  -9.98  -9.59  -9.59  -9.18  -9.18  -9.18  -9.18  -9.14  -9.14  -9.12
         -9.09  -9.08  -9.08  -8.94  -8.63  -8.63  -8.60  -8.51  -8.51  -8.39
         -8.39  -8.35  -8.35  -8.31  -8.19  -8.19  -8.17  -8.17  -8.17  -8.17
         -7.81  -7.74  -7.74  -7.70  -7.70  -7.60  -7.60  -7.60  -7.60  -7.52
         -7.52  -7.50  -7.50  -7.48  -7.48  -7.45  -7.42  -7.42  -7.42  -7.42
         -7.36  -7.31  -7.31  -7.19  -7.19  -7.18  -7.18  -7.01  -7.01  -7.01
         -7.01  -6.77  -6.72  -6.60  -6.58  -6.58  -6.52  -6.27  -6.27  -6.23
         -6.23  -6.21  -6.21  -6.21  -6.21  -6.13  -6.13  -6.13  -6.13  -6.10
         -6.10  -6.09  -6.08  -6.08  -6.03  -6.01  -6.01  -5.98  -5.98  -5.98
         -5.98  -5.96  -5.96  -5.91  -5.88  -5.86  -5.86  -5.84  -5.83  -5.83
         -5.83  -5.83  -5.79  -5.79  -5.77  -5.77  -5.71  -5.71  -5.67  -5.65
         -5.65  -5.65  -5.65  -5.64  -5.64  -5.56  -5.55  -5.55  -5.52  -5.52
         -5.51  -5.51  -5.36  -5.36  -5.35  -5.35  -5.35  -5.35  -5.35  -5.28
         -5.20  -5.20  -5.16  -5.16  -5.07  -5.00  -5.00  -4.87  -4.87  -4.72
         -4.00  -4.00  -4.00  -4.00  -3.63  -2.43  -2.43  -2.20  -1.93  -1.39
         -1.39  -0.17  -0.17  -0.16  -0.16   0.17   0.17   0.17   0.17   0.33
          0.33   5.29
   3  2  -9.98  -9.59  -9.59  -9.18  -9.18  -9.18  -9.18  -9.14  -9.14  -9.12
         -9.09  -9.08  -9.08  -8.94  -8.63  -8.63  -8.60  -8.51  -8.51  -8.39
         -8.39  -8.35  -8.35  -8.31  -8.19  -8.19  -8.17  -8.17  -8.17  -8.17
         -7.81  -7.74  -7.74  -7.70  -7.70  -7.60  -7.60  -7.60  -7.60  -7.52
         -7.52  -7.50  -7.50  -7.48  -7.48  -7.45  -7.42  -7.42  -7.42  -7.42
         -7.36  -7.31  -7.31  -7.19  -7.19  -7.18  -7.18  -7.01  -7.01  -7.01
         -7.01  -6.77  -6.72  -6.60  -6.58  -6.58  -6.52  -6.27  -6.27  -6.23
         -6.23  -6.21  -6.21  -6.21  -6.21  -6.13  -6.13  -6.13  -6.13  -6.10
         -6.10  -6.09  -6.08  -6.08  -6.03  -6.01  -6.01  -5.98  -5.98  -5.98
         -5.98  -5.96  -5.96  -5.91  -5.88  -5.86  -5.86  -5.84  -5.83  -5.83
         -5.83  -5.83  -5.79  -5.79  -5.77  -5.77  -5.71  -5.71  -5.67  -5.65
         -5.65  -5.65  -5.65  -5.64  -5.64  -5.56  -5.55  -5.55  -5.52  -5.52
         -5.51  -5.51  -5.36  -5.36  -5.35  -5.35  -5.35  -5.35  -5.35  -5.28
         -5.20  -5.20  -5.16  -5.16  -5.07  -5.00  -5.00  -4.87  -4.87  -4.72
         -4.00  -4.00  -4.00  -4.00  -3.63  -2.43  -2.43  -2.20  -1.93  -1.39
         -1.39  -0.17  -0.17  -0.16  -0.16   0.17   0.17   0.17   0.17   0.33
          0.33   5.29
   4  1  -9.98  -9.59  -9.59  -9.18  -9.18  -9.18  -9.18  -9.14  -9.14  -9.12
         -9.09  -9.08  -9.08  -8.94  -8.63  -8.63  -8.60  -8.51  -8.51  -8.39
         -8.39  -8.35  -8.35  -8.31  -8.19  -8.19  -8.17  -8.17  -8.17  -8.17
         -7.81  -7.74  -7.74  -7.70  -7.70  -7.60  -7.60  -7.60  -7.60  -7.52
         -7.52  -7.50  -7.50  -7.48  -7.48  -7.45  -7.42  -7.42  -7.42  -7.42
         -7.36  -7.31  -7.31  -7.19  -7.19  -7.18  -7.18  -7.01  -7.01  -7.01
         -7.01  -6.77  -6.72  -6.60  -6.58  -6.58  -6.52  -6.27  -6.27  -6.23
         -6.23  -6.21  -6.21  -6.21  -6.21  -6.13  -6.13  -6.13  -6.13  -6.10
         -6.10  -6.09  -6.08  -6.08  -6.03  -6.01  -6.01  -5.98  -5.98  -5.98
         -5.98  -5.96  -5.96  -5.91  -5.88  -5.86  -5.86  -5.84  -5.83  -5.83
         -5.83  -5.83  -5.79  -5.79  -5.77  -5.77  -5.71  -5.71  -5.67  -5.65
         -5.65  -5.65  -5.65  -5.64  -5.64  -5.56  -5.55  -5.55  -5.52  -5.52
         -5.51  -5.51  -5.36  -5.36  -5.35  -5.35  -5.35  -5.35  -5.35  -5.28
         -5.20  -5.20  -5.16  -5.16  -5.07  -5.00  -5.00  -4.87  -4.87  -4.72
         -4.00  -4.00  -4.00  -4.00  -3.63  -2.43  -2.43  -2.20  -1.93  -1.39
         -1.39  -0.17  -0.17  -0.16  -0.16   0.17   0.17   0.17   0.17   0.33
          0.33   5.29
   4  2  -9.98  -9.59  -9.59  -9.18  -9.18  -9.18  -9.18  -9.14  -9.14  -9.12
         -9.09  -9.08  -9.08  -8.94  -8.63  -8.63  -8.60  -8.51  -8.51  -8.39
         -8.39  -8.35  -8.35  -8.31  -8.19  -8.19  -8.17  -8.17  -8.17  -8.17
         -7.81  -7.74  -7.74  -7.70  -7.70  -7.60  -7.60  -7.60  -7.60  -7.52
         -7.52  -7.50  -7.50  -7.48  -7.48  -7.45  -7.42  -7.42  -7.42  -7.42
         -7.36  -7.31  -7.31  -7.19  -7.19  -7.18  -7.18  -7.01  -7.01  -7.01
         -7.01  -6.77  -6.72  -6.60  -6.58  -6.58  -6.52  -6.27  -6.27  -6.23
         -6.23  -6.21  -6.21  -6.21  -6.21  -6.13  -6.13  -6.13  -6.13  -6.10
         -6.10  -6.09  -6.08  -6.08  -6.03  -6.01  -6.01  -5.98  -5.98  -5.98
         -5.98  -5.96  -5.96  -5.91  -5.88  -5.86  -5.86  -5.84  -5.83  -5.83
         -5.83  -5.83  -5.79  -5.79  -5.77  -5.77  -5.71  -5.71  -5.67  -5.65
         -5.65  -5.65  -5.65  -5.64  -5.64  -5.56  -5.55  -5.55  -5.52  -5.52
         -5.51  -5.51  -5.36  -5.36  -5.35  -5.35  -5.35  -5.35  -5.35  -5.28
         -5.20  -5.20  -5.16  -5.16  -5.07  -5.00  -5.00  -4.87  -4.87  -4.72
         -4.00  -4.00  -4.00  -4.00  -3.63  -2.43  -2.43  -2.20  -1.93  -1.39
         -1.39  -0.17  -0.17  -0.16  -0.16   0.17   0.17   0.17   0.17   0.33
          0.33   5.29
   5  1  -9.98  -9.59  -9.59  -9.18  -9.18  -9.18  -9.18  -9.14  -9.14  -9.12
         -9.09  -9.08  -9.08  -8.94  -8.63  -8.63  -8.60  -8.51  -8.51  -8.39
         -8.39  -8.35  -8.35  -8.31  -8.19  -8.19  -8.17  -8.17  -8.17  -8.17
         -7.81  -7.74  -7.74  -7.70  -7.70  -7.60  -7.60  -7.60  -7.60  -7.52
         -7.52  -7.50  -7.50  -7.48  -7.48  -7.45  -7.42  -7.42  -7.42  -7.42
         -7.36  -7.31  -7.31  -7.19  -7.19  -7.18  -7.18  -7.01  -7.01  -7.01
         -7.01  -6.77  -6.72  -6.60  -6.58  -6.58  -6.52  -6.27  -6.27  -6.23
         -6.23  -6.21  -6.21  -6.21  -6.21  -6.13  -6.13  -6.13  -6.13  -6.10
         -6.10  -6.09  -6.08  -6.08  -6.03  -6.01  -6.01  -5.98  -5.98  -5.98
         -5.98  -5.96  -5.96  -5.91  -5.88  -5.86  -5.86  -5.84  -5.83  -5.83
         -5.83  -5.83  -5.79  -5.79  -5.77  -5.77  -5.71  -5.71  -5.67  -5.65
         -5.65  -5.65  -5.65  -5.64  -5.64  -5.56  -5.55  -5.55  -5.52  -5.52
         -5.51  -5.51  -5.36  -5.36  -5.35  -5.35  -5.35  -5.35  -5.35  -5.28
         -5.20  -5.20  -5.16  -5.16  -5.07  -5.00  -5.00  -4.87  -4.87  -4.72
         -4.00  -4.00  -4.00  -4.00  -3.63  -2.43  -2.43  -2.20  -1.93  -1.39
         -1.39  -0.17  -0.17  -0.16  -0.16   0.17   0.17   0.17   0.17   0.33
          0.33   5.29
   5  2  -9.98  -9.59  -9.59  -9.18  -9.18  -9.18  -9.18  -9.14  -9.14  -9.12
         -9.09  -9.08  -9.08  -8.94  -8.63  -8.63  -8.60  -8.51  -8.51  -8.39
         -8.39  -8.35  -8.35  -8.31  -8.19  -8.19  -8.17  -8.17  -8.17  -8.17
         -7.81  -7.74  -7.74  -7.70  -7.70  -7.60  -7.60  -7.60  -7.60  -7.52
         -7.52  -7.50  -7.50  -7.48  -7.48  -7.45  -7.42  -7.42  -7.42  -7.42
         -7.36  -7.31  -7.31  -7.19  -7.19  -7.18  -7.18  -7.01  -7.01  -7.01
         -7.01  -6.77  -6.72  -6.60  -6.58  -6.58  -6.52  -6.27  -6.27  -6.23
         -6.23  -6.21  -6.21  -6.21  -6.21  -6.13  -6.13  -6.13  -6.13  -6.10
         -6.10  -6.09  -6.08  -6.08  -6.03  -6.01  -6.01  -5.98  -5.98  -5.98
         -5.98  -5.96  -5.96  -5.91  -5.88  -5.86  -5.86  -5.84  -5.83  -5.83
         -5.83  -5.83  -5.79  -5.79  -5.77  -5.77  -5.71  -5.71  -5.67  -5.65
         -5.65  -5.65  -5.65  -5.64  -5.64  -5.56  -5.55  -5.55  -5.52  -5.52
         -5.51  -5.51  -5.36  -5.36  -5.35  -5.35  -5.35  -5.35  -5.35  -5.28
         -5.20  -5.20  -5.16  -5.16  -5.07  -5.00  -5.00  -4.87  -4.87  -4.72
         -4.00  -4.00  -4.00  -4.00  -3.63  -2.43  -2.43  -2.20  -1.93  -1.39
         -1.39  -0.17  -0.17  -0.16  -0.16   0.17   0.17   0.17   0.17   0.33
          0.33   5.29
   6  1  -9.98  -9.59  -9.59  -9.18  -9.18  -9.18  -9.18  -9.14  -9.14  -9.12
         -9.09  -9.08  -9.07  -8.94  -8.64  -8.62  -8.60  -8.52  -8.50  -8.39
         -8.38  -8.35  -8.35  -8.31  -8.19  -8.18  -8.18  -8.18  -8.17  -8.17
         -7.81  -7.74  -7.74  -7.70  -7.70  -7.60  -7.60  -7.60  -7.60  -7.52
         -7.52  -7.51  -7.50  -7.48  -7.48  -7.45  -7.43  -7.43  -7.42  -7.42
         -7.36  -7.31  -7.31  -7.20  -7.19  -7.18  -7.17  -7.01  -7.01  -7.01
         -7.01  -6.77  -6.72  -6.60  -6.58  -6.57  -6.52  -6.28  -6.27  -6.23
         -6.23  -6.22  -6.22  -6.21  -6.21  -6.13  -6.13  -6.13  -6.13  -6.10
         -6.10  -6.09  -6.08  -6.08  -6.03  -6.02  -6.01  -5.99  -5.99  -5.98
         -5.98  -5.96  -5.96  -5.91  -5.88  -5.86  -5.86  -5.84  -5.83  -5.83
         -5.83  -5.83  -5.79  -5.78  -5.77  -5.77  -5.71  -5.71  -5.67  -5.66
         -5.66  -5.65  -5.65  -5.64  -5.64  -5.56  -5.55  -5.54  -5.52  -5.52
         -5.51  -5.51  -5.36  -5.35  -5.35  -5.35  -5.35  -5.35  -5.35  -5.28
         -5.20  -5.20  -5.16  -5.16  -5.07  -5.00  -4.99  -4.87  -4.87  -4.72
         -4.03  -4.03  -3.98  -3.98  -3.63  -2.48  -2.38  -2.20  -1.93  -1.43
         -1.35  -0.20  -0.18  -0.14  -0.13   0.13   0.13   0.20   0.20   0.33
          0.33   5.29
   6  2  -9.98  -9.59  -9.59  -9.18  -9.18  -9.18  -9.18  -9.14  -9.14  -9.12
         -9.09  -9.08  -9.07  -8.94  -8.64  -8.62  -8.60  -8.52  -8.50  -8.39
         -8.38  -8.35  -8.35  -8.31  -8.19  -8.18  -8.18  -8.18  -8.17  -8.17
         -7.81  -7.74  -7.74  -7.70  -7.70  -7.60  -7.60  -7.60  -7.60  -7.52
         -7.52  -7.51  -7.50  -7.48  -7.48  -7.45  -7.43  -7.43  -7.42  -7.42
         -7.36  -7.31  -7.31  -7.20  -7.19  -7.18  -7.17  -7.01  -7.01  -7.01
         -7.01  -6.77  -6.72  -6.60  -6.58  -6.57  -6.52  -6.28  -6.27  -6.23
         -6.23  -6.22  -6.22  -6.21  -6.21  -6.13  -6.13  -6.13  -6.13  -6.10
         -6.10  -6.09  -6.08  -6.08  -6.03  -6.02  -6.01  -5.99  -5.99  -5.98
         -5.98  -5.96  -5.96  -5.91  -5.88  -5.86  -5.86  -5.84  -5.83  -5.83
         -5.83  -5.83  -5.79  -5.78  -5.77  -5.77  -5.71  -5.71  -5.67  -5.66
         -5.66  -5.65  -5.65  -5.64  -5.64  -5.56  -5.55  -5.54  -5.52  -5.52
         -5.51  -5.51  -5.36  -5.35  -5.35  -5.35  -5.35  -5.35  -5.35  -5.28
         -5.20  -5.20  -5.16  -5.16  -5.07  -5.00  -4.99  -4.87  -4.87  -4.72
         -4.03  -4.03  -3.98  -3.98  -3.63  -2.48  -2.38  -2.20  -1.93  -1.43
         -1.35  -0.20  -0.18  -0.14  -0.13   0.13   0.13   0.20   0.20   0.33
          0.33   5.29
   7  1  -9.98  -9.59  -9.59  -9.18  -9.18  -9.18  -9.18  -9.14  -9.14  -9.12
         -9.09  -9.08  -9.07  -8.94  -8.64  -8.62  -8.60  -8.52  -8.50  -8.39
         -8.38  -8.35  -8.35  -8.31  -8.19  -8.18  -8.18  -8.18  -8.17  -8.17
         -7.81  -7.74  -7.74  -7.70  -7.70  -7.60  -7.60  -7.60  -7.60  -7.52
         -7.52  -7.51  -7.50  -7.48  -7.48  -7.45  -7.43  -7.43  -7.42  -7.42
         -7.36  -7.31  -7.31  -7.20  -7.19  -7.18  -7.17  -7.01  -7.01  -7.01
         -7.01  -6.77  -6.72  -6.60  -6.58  -6.57  -6.52  -6.28  -6.27  -6.23
         -6.23  -6.22  -6.22  -6.21  -6.21  -6.13  -6.13  -6.13  -6.13  -6.10
         -6.10  -6.09  -6.08  -6.08  -6.03  -6.02  -6.01  -5.99  -5.99  -5.98
         -5.98  -5.96  -5.96  -5.91  -5.88  -5.86  -5.86  -5.84  -5.83  -5.83
         -5.83  -5.83  -5.79  -5.78  -5.77  -5.77  -5.71  -5.71  -5.67  -5.66
         -5.66  -5.65  -5.65  -5.64  -5.64  -5.56  -5.55  -5.54  -5.52  -5.52
         -5.51  -5.51  -5.36  -5.35  -5.35  -5.35  -5.35  -5.35  -5.35  -5.28
         -5.20  -5.20  -5.16  -5.16  -5.07  -5.00  -4.99  -4.87  -4.87  -4.72
         -4.03  -4.03  -3.98  -3.98  -3.63  -2.48  -2.38  -2.20  -1.93  -1.43
         -1.35  -0.20  -0.18  -0.14  -0.13   0.13   0.13   0.20   0.20   0.33
          0.33   5.29
   7  2  -9.98  -9.59  -9.59  -9.18  -9.18  -9.18  -9.18  -9.14  -9.14  -9.12
         -9.09  -9.08  -9.07  -8.94  -8.64  -8.62  -8.60  -8.52  -8.50  -8.39
         -8.38  -8.35  -8.35  -8.31  -8.19  -8.18  -8.18  -8.18  -8.17  -8.17
         -7.81  -7.74  -7.74  -7.70  -7.70  -7.60  -7.60  -7.60  -7.60  -7.52
         -7.52  -7.51  -7.50  -7.48  -7.48  -7.45  -7.43  -7.43  -7.42  -7.42
         -7.36  -7.31  -7.31  -7.20  -7.19  -7.18  -7.17  -7.01  -7.01  -7.01
         -7.01  -6.77  -6.72  -6.60  -6.58  -6.57  -6.52  -6.28  -6.27  -6.23
         -6.23  -6.22  -6.22  -6.21  -6.21  -6.13  -6.13  -6.13  -6.13  -6.10
         -6.10  -6.09  -6.08  -6.08  -6.03  -6.02  -6.01  -5.99  -5.99  -5.98
         -5.98  -5.96  -5.96  -5.91  -5.88  -5.86  -5.86  -5.84  -5.83  -5.83
         -5.83  -5.83  -5.79  -5.78  -5.77  -5.77  -5.71  -5.71  -5.67  -5.66
         -5.66  -5.65  -5.65  -5.64  -5.64  -5.56  -5.55  -5.54  -5.52  -5.52
         -5.51  -5.51  -5.36  -5.35  -5.35  -5.35  -5.35  -5.35  -5.35  -5.28
         -5.20  -5.20  -5.16  -5.16  -5.07  -5.00  -4.99  -4.87  -4.87  -4.72
         -4.03  -4.03  -3.98  -3.98  -3.63  -2.48  -2.38  -2.20  -1.93  -1.43
         -1.35  -0.20  -0.18  -0.14  -0.13   0.13   0.13   0.20   0.20   0.33
          0.33   5.29
   8  1  -9.98  -9.59  -9.59  -9.18  -9.18  -9.18  -9.18  -9.14  -9.14  -9.12
         -9.09  -9.08  -9.07  -8.94  -8.64  -8.62  -8.60  -8.52  -8.50  -8.39
         -8.38  -8.35  -8.35  -8.31  -8.19  -8.18  -8.18  -8.18  -8.17  -8.17
         -7.81  -7.74  -7.74  -7.70  -7.70  -7.60  -7.60  -7.60  -7.60  -7.52
         -7.52  -7.51  -7.50  -7.48  -7.48  -7.45  -7.43  -7.43  -7.42  -7.42
         -7.36  -7.31  -7.31  -7.20  -7.19  -7.18  -7.17  -7.01  -7.01  -7.01
         -7.01  -6.77  -6.72  -6.60  -6.58  -6.57  -6.52  -6.28  -6.27  -6.23
         -6.23  -6.22  -6.22  -6.21  -6.21  -6.13  -6.13  -6.13  -6.13  -6.10
         -6.10  -6.09  -6.08  -6.08  -6.03  -6.02  -6.01  -5.99  -5.99  -5.98
         -5.98  -5.96  -5.96  -5.91  -5.88  -5.86  -5.86  -5.84  -5.83  -5.83
         -5.83  -5.83  -5.79  -5.78  -5.77  -5.77  -5.71  -5.71  -5.67  -5.66
         -5.66  -5.65  -5.65  -5.64  -5.64  -5.56  -5.55  -5.54  -5.52  -5.52
         -5.51  -5.51  -5.36  -5.35  -5.35  -5.35  -5.35  -5.35  -5.35  -5.28
         -5.20  -5.20  -5.16  -5.16  -5.07  -5.00  -4.99  -4.87  -4.87  -4.72
         -4.03  -4.03  -3.98  -3.98  -3.63  -2.48  -2.38  -2.20  -1.93  -1.43
         -1.35  -0.20  -0.18  -0.14  -0.13   0.13   0.13   0.20   0.20   0.33
          0.33   5.29
   8  2  -9.98  -9.59  -9.59  -9.18  -9.18  -9.18  -9.18  -9.14  -9.14  -9.12
         -9.09  -9.08  -9.07  -8.94  -8.64  -8.62  -8.60  -8.52  -8.50  -8.39
         -8.38  -8.35  -8.35  -8.31  -8.19  -8.18  -8.18  -8.18  -8.17  -8.17
         -7.81  -7.74  -7.74  -7.70  -7.70  -7.60  -7.60  -7.60  -7.60  -7.52
         -7.52  -7.51  -7.50  -7.48  -7.48  -7.45  -7.43  -7.43  -7.42  -7.42
         -7.36  -7.31  -7.31  -7.20  -7.19  -7.18  -7.17  -7.01  -7.01  -7.01
         -7.01  -6.77  -6.72  -6.60  -6.58  -6.57  -6.52  -6.28  -6.27  -6.23
         -6.23  -6.22  -6.22  -6.21  -6.21  -6.13  -6.13  -6.13  -6.13  -6.10
         -6.10  -6.09  -6.08  -6.08  -6.03  -6.02  -6.01  -5.99  -5.99  -5.98
         -5.98  -5.96  -5.96  -5.91  -5.88  -5.86  -5.86  -5.84  -5.83  -5.83
         -5.83  -5.83  -5.79  -5.78  -5.77  -5.77  -5.71  -5.71  -5.67  -5.66
         -5.66  -5.65  -5.65  -5.64  -5.64  -5.56  -5.55  -5.54  -5.52  -5.52
         -5.51  -5.51  -5.36  -5.35  -5.35  -5.35  -5.35  -5.35  -5.35  -5.28
         -5.20  -5.20  -5.16  -5.16  -5.07  -5.00  -4.99  -4.87  -4.87  -4.72
         -4.03  -4.03  -3.98  -3.98  -3.63  -2.48  -2.38  -2.20  -1.93  -1.43
         -1.35  -0.20  -0.18  -0.14  -0.13   0.13   0.13   0.20   0.20   0.33
          0.33   5.29
   9  1  -9.98  -9.59  -9.59  -9.18  -9.18  -9.18  -9.18  -9.14  -9.14  -9.12
         -9.09  -9.08  -9.07  -8.94  -8.64  -8.62  -8.60  -8.52  -8.50  -8.39
         -8.38  -8.35  -8.35  -8.31  -8.19  -8.18  -8.18  -8.18  -8.17  -8.17
         -7.81  -7.74  -7.74  -7.70  -7.70  -7.60  -7.60  -7.60  -7.60  -7.52
         -7.52  -7.51  -7.50  -7.48  -7.48  -7.45  -7.43  -7.43  -7.42  -7.42
         -7.36  -7.31  -7.31  -7.20  -7.19  -7.18  -7.17  -7.01  -7.01  -7.01
         -7.01  -6.77  -6.72  -6.60  -6.58  -6.57  -6.52  -6.28  -6.27  -6.23
         -6.23  -6.22  -6.22  -6.21  -6.21  -6.13  -6.13  -6.13  -6.13  -6.10
         -6.10  -6.09  -6.08  -6.08  -6.03  -6.02  -6.01  -5.99  -5.99  -5.98
         -5.98  -5.96  -5.96  -5.91  -5.88  -5.86  -5.86  -5.84  -5.83  -5.83
         -5.83  -5.83  -5.79  -5.78  -5.77  -5.77  -5.71  -5.71  -5.67  -5.66
         -5.66  -5.65  -5.65  -5.64  -5.64  -5.56  -5.55  -5.54  -5.52  -5.52
         -5.51  -5.51  -5.36  -5.35  -5.35  -5.35  -5.35  -5.35  -5.35  -5.28
         -5.20  -5.20  -5.16  -5.16  -5.07  -5.00  -4.99  -4.87  -4.87  -4.72
         -4.03  -4.03  -3.98  -3.98  -3.63  -2.48  -2.38  -2.20  -1.93  -1.43
         -1.35  -0.20  -0.18  -0.14  -0.13   0.13   0.13   0.20   0.20   0.33
          0.33   5.29
   9  2  -9.98  -9.59  -9.59  -9.18  -9.18  -9.18  -9.18  -9.14  -9.14  -9.12
         -9.09  -9.08  -9.07  -8.94  -8.64  -8.62  -8.60  -8.52  -8.50  -8.39
         -8.38  -8.35  -8.35  -8.31  -8.19  -8.18  -8.18  -8.18  -8.17  -8.17
         -7.81  -7.74  -7.74  -7.70  -7.70  -7.60  -7.60  -7.60  -7.60  -7.52
         -7.52  -7.51  -7.50  -7.48  -7.48  -7.45  -7.43  -7.43  -7.42  -7.42
         -7.36  -7.31  -7.31  -7.20  -7.19  -7.18  -7.17  -7.01  -7.01  -7.01
         -7.01  -6.77  -6.72  -6.60  -6.58  -6.57  -6.52  -6.28  -6.27  -6.23
         -6.23  -6.22  -6.22  -6.21  -6.21  -6.13  -6.13  -6.13  -6.13  -6.10
         -6.10  -6.09  -6.08  -6.08  -6.03  -6.02  -6.01  -5.99  -5.99  -5.98
         -5.98  -5.96  -5.96  -5.91  -5.88  -5.86  -5.86  -5.84  -5.83  -5.83
         -5.83  -5.83  -5.79  -5.78  -5.77  -5.77  -5.71  -5.71  -5.67  -5.66
         -5.66  -5.65  -5.65  -5.64  -5.64  -5.56  -5.55  -5.54  -5.52  -5.52
         -5.51  -5.51  -5.36  -5.35  -5.35  -5.35  -5.35  -5.35  -5.35  -5.28
         -5.20  -5.20  -5.16  -5.16  -5.07  -5.00  -4.99  -4.87  -4.87  -4.72
         -4.03  -4.03  -3.98  -3.98  -3.63  -2.48  -2.38  -2.20  -1.93  -1.43
         -1.35  -0.20  -0.18  -0.14  -0.13   0.13   0.13   0.20   0.20   0.33
          0.33   5.29
  10  1  -9.98  -9.59  -9.59  -9.18  -9.18  -9.18  -9.18  -9.14  -9.14  -9.12
         -9.09  -9.08  -9.07  -8.94  -8.64  -8.62  -8.60  -8.52  -8.50  -8.39
         -8.38  -8.35  -8.35  -8.31  -8.19  -8.18  -8.18  -8.18  -8.17  -8.17
         -7.81  -7.74  -7.74  -7.70  -7.70  -7.60  -7.60  -7.60  -7.60  -7.52
         -7.52  -7.51  -7.50  -7.48  -7.48  -7.45  -7.43  -7.43  -7.42  -7.42
         -7.36  -7.31  -7.31  -7.20  -7.19  -7.18  -7.17  -7.01  -7.01  -7.01
         -7.01  -6.77  -6.72  -6.60  -6.58  -6.57  -6.52  -6.28  -6.27  -6.23
         -6.23  -6.22  -6.22  -6.21  -6.21  -6.13  -6.13  -6.13  -6.13  -6.10
         -6.10  -6.09  -6.08  -6.08  -6.03  -6.02  -6.01  -5.99  -5.99  -5.98
         -5.98  -5.96  -5.96  -5.91  -5.88  -5.86  -5.86  -5.84  -5.83  -5.83
         -5.83  -5.83  -5.79  -5.78  -5.77  -5.77  -5.71  -5.71  -5.67  -5.66
         -5.66  -5.65  -5.65  -5.64  -5.64  -5.56  -5.55  -5.54  -5.52  -5.52
         -5.51  -5.51  -5.36  -5.35  -5.35  -5.35  -5.35  -5.35  -5.35  -5.28
         -5.20  -5.20  -5.16  -5.16  -5.07  -5.00  -4.99  -4.87  -4.87  -4.72
         -4.03  -4.03  -3.98  -3.98  -3.63  -2.48  -2.38  -2.20  -1.93  -1.43
         -1.35  -0.20  -0.18  -0.14  -0.13   0.13   0.13   0.20   0.20   0.33
          0.33   5.29
  10  2  -9.98  -9.59  -9.59  -9.18  -9.18  -9.18  -9.18  -9.14  -9.14  -9.12
         -9.09  -9.08  -9.07  -8.94  -8.64  -8.62  -8.60  -8.52  -8.50  -8.39
         -8.38  -8.35  -8.35  -8.31  -8.19  -8.18  -8.18  -8.18  -8.17  -8.17
         -7.81  -7.74  -7.74  -7.70  -7.70  -7.60  -7.60  -7.60  -7.60  -7.52
         -7.52  -7.51  -7.50  -7.48  -7.48  -7.45  -7.43  -7.43  -7.42  -7.42
         -7.36  -7.31  -7.31  -7.20  -7.19  -7.18  -7.17  -7.01  -7.01  -7.01
         -7.01  -6.77  -6.72  -6.60  -6.58  -6.57  -6.52  -6.28  -6.27  -6.23
         -6.23  -6.22  -6.22  -6.21  -6.21  -6.13  -6.13  -6.13  -6.13  -6.10
         -6.10  -6.09  -6.08  -6.08  -6.03  -6.02  -6.01  -5.99  -5.99  -5.98
         -5.98  -5.96  -5.96  -5.91  -5.88  -5.86  -5.86  -5.84  -5.83  -5.83
         -5.83  -5.83  -5.79  -5.78  -5.77  -5.77  -5.71  -5.71  -5.67  -5.66
         -5.66  -5.65  -5.65  -5.64  -5.64  -5.56  -5.55  -5.54  -5.52  -5.52
         -5.51  -5.51  -5.36  -5.35  -5.35  -5.35  -5.35  -5.35  -5.35  -5.28
         -5.20  -5.20  -5.16  -5.16  -5.07  -5.00  -4.99  -4.87  -4.87  -4.72
         -4.03  -4.03  -3.98  -3.98  -3.63  -2.48  -2.38  -2.20  -1.93  -1.43
         -1.35  -0.20  -0.18  -0.14  -0.13   0.13   0.13   0.20   0.20   0.33
          0.33   5.29
  11  1  -9.98  -9.59  -9.59  -9.18  -9.18  -9.18  -9.18  -9.14  -9.14  -9.12
         -9.09  -9.08  -9.07  -8.94  -8.64  -8.62  -8.60  -8.52  -8.50  -8.39
         -8.38  -8.35  -8.35  -8.31  -8.19  -8.18  -8.18  -8.18  -8.17  -8.17
         -7.81  -7.74  -7.74  -7.70  -7.70  -7.60  -7.60  -7.60  -7.60  -7.52
         -7.52  -7.51  -7.50  -7.48  -7.48  -7.45  -7.43  -7.43  -7.42  -7.42
         -7.36  -7.31  -7.31  -7.20  -7.19  -7.18  -7.17  -7.01  -7.01  -7.01
         -7.01  -6.77  -6.72  -6.60  -6.58  -6.57  -6.52  -6.28  -6.27  -6.23
         -6.23  -6.22  -6.22  -6.21  -6.21  -6.13  -6.13  -6.13  -6.13  -6.10
         -6.10  -6.09  -6.08  -6.08  -6.03  -6.02  -6.01  -5.99  -5.99  -5.98
         -5.98  -5.96  -5.96  -5.91  -5.88  -5.86  -5.86  -5.84  -5.83  -5.83
         -5.83  -5.83  -5.79  -5.78  -5.77  -5.77  -5.71  -5.71  -5.67  -5.66
         -5.66  -5.65  -5.65  -5.64  -5.64  -5.56  -5.55  -5.54  -5.52  -5.52
         -5.51  -5.51  -5.36  -5.35  -5.35  -5.35  -5.35  -5.35  -5.35  -5.28
         -5.20  -5.20  -5.16  -5.16  -5.07  -5.00  -4.99  -4.87  -4.87  -4.72
         -4.03  -4.03  -3.98  -3.98  -3.63  -2.48  -2.38  -2.20  -1.93  -1.43
         -1.35  -0.20  -0.18  -0.14  -0.13   0.13   0.13   0.20   0.20   0.33
          0.33   5.29
  11  2  -9.98  -9.59  -9.59  -9.18  -9.18  -9.18  -9.18  -9.14  -9.14  -9.12
         -9.09  -9.08  -9.07  -8.94  -8.64  -8.62  -8.60  -8.52  -8.50  -8.39
         -8.38  -8.35  -8.35  -8.31  -8.19  -8.18  -8.18  -8.18  -8.17  -8.17
         -7.81  -7.74  -7.74  -7.70  -7.70  -7.60  -7.60  -7.60  -7.60  -7.52
         -7.52  -7.51  -7.50  -7.48  -7.48  -7.45  -7.43  -7.43  -7.42  -7.42
         -7.36  -7.31  -7.31  -7.20  -7.19  -7.18  -7.17  -7.01  -7.01  -7.01
         -7.01  -6.77  -6.72  -6.60  -6.58  -6.57  -6.52  -6.28  -6.27  -6.23
         -6.23  -6.22  -6.22  -6.21  -6.21  -6.13  -6.13  -6.13  -6.13  -6.10
         -6.10  -6.09  -6.08  -6.08  -6.03  -6.02  -6.01  -5.99  -5.99  -5.98
         -5.98  -5.96  -5.96  -5.91  -5.88  -5.86  -5.86  -5.84  -5.83  -5.83
         -5.83  -5.83  -5.79  -5.78  -5.77  -5.77  -5.71  -5.71  -5.67  -5.66
         -5.66  -5.65  -5.65  -5.64  -5.64  -5.56  -5.55  -5.54  -5.52  -5.52
         -5.51  -5.51  -5.36  -5.35  -5.35  -5.35  -5.35  -5.35  -5.35  -5.28
         -5.20  -5.20  -5.16  -5.16  -5.07  -5.00  -4.99  -4.87  -4.87  -4.72
         -4.03  -4.03  -3.98  -3.98  -3.63  -2.48  -2.38  -2.20  -1.93  -1.43
         -1.35  -0.20  -0.18  -0.14  -0.13   0.13   0.13   0.20   0.20   0.33
          0.33   5.29
  12  1  -9.98  -9.59  -9.59  -9.18  -9.18  -9.18  -9.18  -9.14  -9.14  -9.12
         -9.09  -9.08  -9.07  -8.94  -8.64  -8.62  -8.60  -8.52  -8.50  -8.39
         -8.38  -8.35  -8.35  -8.31  -8.19  -8.18  -8.18  -8.18  -8.17  -8.17
         -7.81  -7.74  -7.74  -7.70  -7.70  -7.60  -7.60  -7.60  -7.60  -7.52
         -7.52  -7.51  -7.50  -7.48  -7.48  -7.45  -7.43  -7.43  -7.42  -7.42
         -7.36  -7.31  -7.31  -7.20  -7.19  -7.18  -7.17  -7.01  -7.01  -7.01
         -7.01  -6.77  -6.72  -6.60  -6.58  -6.57  -6.52  -6.28  -6.27  -6.23
         -6.23  -6.22  -6.22  -6.21  -6.21  -6.13  -6.13  -6.13  -6.13  -6.10
         -6.10  -6.09  -6.08  -6.08  -6.03  -6.02  -6.01  -5.99  -5.99  -5.98
         -5.98  -5.96  -5.96  -5.91  -5.88  -5.86  -5.86  -5.84  -5.83  -5.83
         -5.83  -5.83  -5.79  -5.78  -5.77  -5.77  -5.71  -5.71  -5.67  -5.66
         -5.66  -5.65  -5.65  -5.64  -5.64  -5.56  -5.55  -5.54  -5.52  -5.52
         -5.51  -5.51  -5.36  -5.35  -5.35  -5.35  -5.35  -5.35  -5.35  -5.28
         -5.20  -5.20  -5.16  -5.16  -5.07  -5.00  -4.99  -4.87  -4.87  -4.72
         -4.03  -4.03  -3.98  -3.98  -3.63  -2.48  -2.38  -2.20  -1.93  -1.43
         -1.35  -0.20  -0.18  -0.14  -0.13   0.13   0.13   0.20   0.20   0.33
          0.33   5.29
  12  2  -9.98  -9.59  -9.59  -9.18  -9.18  -9.18  -9.18  -9.14  -9.14  -9.12
         -9.09  -9.08  -9.07  -8.94  -8.64  -8.62  -8.60  -8.52  -8.50  -8.39
         -8.38  -8.35  -8.35  -8.31  -8.19  -8.18  -8.18  -8.18  -8.17  -8.17
         -7.81  -7.74  -7.74  -7.70  -7.70  -7.60  -7.60  -7.60  -7.60  -7.52
         -7.52  -7.51  -7.50  -7.48  -7.48  -7.45  -7.43  -7.43  -7.42  -7.42
         -7.36  -7.31  -7.31  -7.20  -7.19  -7.18  -7.17  -7.01  -7.01  -7.01
         -7.01  -6.77  -6.72  -6.60  -6.58  -6.57  -6.52  -6.28  -6.27  -6.23
         -6.23  -6.22  -6.22  -6.21  -6.21  -6.13  -6.13  -6.13  -6.13  -6.10
         -6.10  -6.09  -6.08  -6.08  -6.03  -6.02  -6.01  -5.99  -5.99  -5.98
         -5.98  -5.96  -5.96  -5.91  -5.88  -5.86  -5.86  -5.84  -5.83  -5.83
         -5.83  -5.83  -5.79  -5.78  -5.77  -5.77  -5.71  -5.71  -5.67  -5.66
         -5.66  -5.65  -5.65  -5.64  -5.64  -5.56  -5.55  -5.54  -5.52  -5.52
         -5.51  -5.51  -5.36  -5.35  -5.35  -5.35  -5.35  -5.35  -5.35  -5.28
         -5.20  -5.20  -5.16  -5.16  -5.07  -5.00  -4.99  -4.87  -4.87  -4.72
         -4.03  -4.03  -3.98  -3.98  -3.63  -2.48  -2.38  -2.20  -1.93  -1.43
         -1.35  -0.20  -0.18  -0.14  -0.13   0.13   0.13   0.20   0.20   0.33
          0.33   5.29
  13  1  -9.98  -9.59  -9.59  -9.18  -9.18  -9.18  -9.18  -9.14  -9.14  -9.12
         -9.09  -9.08  -9.07  -8.94  -8.64  -8.62  -8.60  -8.52  -8.50  -8.39
         -8.38  -8.35  -8.35  -8.31  -8.19  -8.18  -8.18  -8.18  -8.17  -8.17
         -7.81  -7.74  -7.74  -7.70  -7.70  -7.60  -7.60  -7.60  -7.60  -7.52
         -7.52  -7.51  -7.50  -7.48  -7.48  -7.45  -7.43  -7.43  -7.42  -7.42
         -7.36  -7.31  -7.31  -7.20  -7.19  -7.18  -7.17  -7.01  -7.01  -7.01
         -7.01  -6.77  -6.72  -6.60  -6.58  -6.57  -6.52  -6.28  -6.27  -6.23
         -6.23  -6.22  -6.22  -6.21  -6.21  -6.13  -6.13  -6.13  -6.13  -6.10
         -6.10  -6.09  -6.08  -6.08  -6.03  -6.02  -6.01  -5.99  -5.99  -5.98
         -5.98  -5.96  -5.96  -5.91  -5.88  -5.86  -5.86  -5.84  -5.83  -5.83
         -5.83  -5.83  -5.79  -5.78  -5.77  -5.77  -5.71  -5.71  -5.67  -5.66
         -5.66  -5.65  -5.65  -5.64  -5.64  -5.56  -5.55  -5.54  -5.52  -5.52
         -5.51  -5.51  -5.36  -5.35  -5.35  -5.35  -5.35  -5.35  -5.35  -5.28
         -5.20  -5.20  -5.16  -5.16  -5.07  -5.00  -4.99  -4.87  -4.87  -4.72
         -4.03  -4.03  -3.98  -3.98  -3.63  -2.48  -2.38  -2.20  -1.93  -1.43
         -1.35  -0.20  -0.18  -0.14  -0.13   0.13   0.13   0.20   0.20   0.33
          0.33   5.29
  13  2  -9.98  -9.59  -9.59  -9.18  -9.18  -9.18  -9.18  -9.14  -9.14  -9.12
         -9.09  -9.08  -9.07  -8.94  -8.64  -8.62  -8.60  -8.52  -8.50  -8.39
         -8.38  -8.35  -8.35  -8.31  -8.19  -8.18  -8.18  -8.18  -8.17  -8.17
         -7.81  -7.74  -7.74  -7.70  -7.70  -7.60  -7.60  -7.60  -7.60  -7.52
         -7.52  -7.51  -7.50  -7.48  -7.48  -7.45  -7.43  -7.43  -7.42  -7.42
         -7.36  -7.31  -7.31  -7.20  -7.19  -7.18  -7.17  -7.01  -7.01  -7.01
         -7.01  -6.77  -6.72  -6.60  -6.58  -6.57  -6.52  -6.28  -6.27  -6.23
         -6.23  -6.22  -6.22  -6.21  -6.21  -6.13  -6.13  -6.13  -6.13  -6.10
         -6.10  -6.09  -6.08  -6.08  -6.03  -6.02  -6.01  -5.99  -5.99  -5.98
         -5.98  -5.96  -5.96  -5.91  -5.88  -5.86  -5.86  -5.84  -5.83  -5.83
         -5.83  -5.83  -5.79  -5.78  -5.77  -5.77  -5.71  -5.71  -5.67  -5.66
         -5.66  -5.65  -5.65  -5.64  -5.64  -5.56  -5.55  -5.54  -5.52  -5.52
         -5.51  -5.51  -5.36  -5.35  -5.35  -5.35  -5.35  -5.35  -5.35  -5.28
         -5.20  -5.20  -5.16  -5.16  -5.07  -5.00  -4.99  -4.87  -4.87  -4.72
         -4.03  -4.03  -3.98  -3.98  -3.63  -2.48  -2.38  -2.20  -1.93  -1.43
         -1.35  -0.20  -0.18  -0.14  -0.13   0.13   0.13   0.20   0.20   0.33
          0.33   5.29
  14  1  -9.98  -9.59  -9.59  -9.18  -9.18  -9.18  -9.18  -9.14  -9.14  -9.12
         -9.09  -9.08  -9.07  -8.94  -8.64  -8.62  -8.60  -8.52  -8.50  -8.39
         -8.38  -8.35  -8.35  -8.31  -8.19  -8.18  -8.18  -8.18  -8.17  -8.17
         -7.81  -7.74  -7.74  -7.70  -7.70  -7.60  -7.60  -7.60  -7.60  -7.52
         -7.52  -7.51  -7.50  -7.48  -7.48  -7.45  -7.43  -7.43  -7.42  -7.42
         -7.36  -7.31  -7.31  -7.20  -7.19  -7.18  -7.17  -7.01  -7.01  -7.01
         -7.01  -6.77  -6.72  -6.60  -6.58  -6.57  -6.52  -6.28  -6.27  -6.23
         -6.23  -6.22  -6.22  -6.21  -6.21  -6.13  -6.13  -6.13  -6.13  -6.10
         -6.10  -6.09  -6.08  -6.08  -6.03  -6.02  -6.01  -5.99  -5.99  -5.98
         -5.98  -5.96  -5.96  -5.91  -5.88  -5.86  -5.86  -5.84  -5.83  -5.83
         -5.83  -5.83  -5.79  -5.78  -5.77  -5.77  -5.71  -5.71  -5.67  -5.66
         -5.66  -5.65  -5.65  -5.64  -5.64  -5.56  -5.55  -5.54  -5.52  -5.52
         -5.51  -5.51  -5.36  -5.35  -5.35  -5.35  -5.35  -5.35  -5.35  -5.28
         -5.20  -5.20  -5.16  -5.16  -5.07  -5.00  -4.99  -4.87  -4.87  -4.72
         -4.03  -4.03  -3.98  -3.98  -3.63  -2.48  -2.38  -2.20  -1.93  -1.43
         -1.35  -0.20  -0.18  -0.14  -0.13   0.13   0.13   0.20   0.20   0.33
          0.33   5.29
  14  2  -9.98  -9.59  -9.59  -9.18  -9.18  -9.18  -9.18  -9.14  -9.14  -9.12
         -9.09  -9.08  -9.07  -8.94  -8.64  -8.62  -8.60  -8.52  -8.50  -8.39
         -8.38  -8.35  -8.35  -8.31  -8.19  -8.18  -8.18  -8.18  -8.17  -8.17
         -7.81  -7.74  -7.74  -7.70  -7.70  -7.60  -7.60  -7.60  -7.60  -7.52
         -7.52  -7.51  -7.50  -7.48  -7.48  -7.45  -7.43  -7.43  -7.42  -7.42
         -7.36  -7.31  -7.31  -7.20  -7.19  -7.18  -7.17  -7.01  -7.01  -7.01
         -7.01  -6.77  -6.72  -6.60  -6.58  -6.57  -6.52  -6.28  -6.27  -6.23
         -6.23  -6.22  -6.22  -6.21  -6.21  -6.13  -6.13  -6.13  -6.13  -6.10
         -6.10  -6.09  -6.08  -6.08  -6.03  -6.02  -6.01  -5.99  -5.99  -5.98
         -5.98  -5.96  -5.96  -5.91  -5.88  -5.86  -5.86  -5.84  -5.83  -5.83
         -5.83  -5.83  -5.79  -5.78  -5.77  -5.77  -5.71  -5.71  -5.67  -5.66
         -5.66  -5.65  -5.65  -5.64  -5.64  -5.56  -5.55  -5.54  -5.52  -5.52
         -5.51  -5.51  -5.36  -5.35  -5.35  -5.35  -5.35  -5.35  -5.35  -5.28
         -5.20  -5.20  -5.16  -5.16  -5.07  -5.00  -4.99  -4.87  -4.87  -4.72
         -4.03  -4.03  -3.98  -3.98  -3.63  -2.48  -2.38  -2.20  -1.93  -1.43
         -1.35  -0.20  -0.18  -0.14  -0.13   0.13   0.13   0.20   0.20   0.33
          0.33   5.29
  15  1  -9.98  -9.59  -9.58  -9.18  -9.18  -9.18  -9.18  -9.14  -9.14  -9.12
         -9.09  -9.08  -9.07  -8.94  -8.64  -8.61  -8.60  -8.52  -8.49  -8.40
         -8.38  -8.35  -8.35  -8.31  -8.20  -8.18  -8.18  -8.18  -8.16  -8.16
         -7.81  -7.74  -7.74  -7.70  -7.70  -7.60  -7.60  -7.59  -7.59  -7.52
         -7.51  -7.51  -7.49  -7.48  -7.48  -7.45  -7.43  -7.43  -7.41  -7.41
         -7.36  -7.31  -7.31  -7.21  -7.19  -7.18  -7.17  -7.01  -7.01  -7.01
         -7.01  -6.77  -6.72  -6.60  -6.59  -6.57  -6.52  -6.29  -6.26  -6.23
         -6.23  -6.22  -6.22  -6.21  -6.21  -6.14  -6.14  -6.13  -6.13  -6.10
         -6.10  -6.09  -6.08  -6.08  -6.03  -6.02  -6.01  -5.99  -5.99  -5.98
         -5.98  -5.97  -5.96  -5.91  -5.88  -5.87  -5.85  -5.84  -5.84  -5.84
         -5.83  -5.83  -5.80  -5.78  -5.77  -5.77  -5.71  -5.71  -5.67  -5.66
         -5.66  -5.64  -5.64  -5.64  -5.64  -5.56  -5.56  -5.54  -5.52  -5.52
         -5.51  -5.51  -5.36  -5.35  -5.35  -5.35  -5.35  -5.35  -5.35  -5.28
         -5.20  -5.20  -5.16  -5.16  -5.07  -5.01  -4.99  -4.87  -4.87  -4.72
         -4.06  -4.06  -3.95  -3.95  -3.63  -2.54  -2.32  -2.20  -1.93  -1.47
         -1.31  -0.23  -0.21  -0.11  -0.10   0.10   0.10   0.23   0.23   0.33
          0.33   5.28
  15  2  -9.98  -9.59  -9.58  -9.18  -9.18  -9.18  -9.18  -9.14  -9.14  -9.12
         -9.09  -9.08  -9.07  -8.94  -8.64  -8.61  -8.60  -8.52  -8.49  -8.40
         -8.38  -8.35  -8.35  -8.31  -8.20  -8.18  -8.18  -8.18  -8.16  -8.16
         -7.81  -7.74  -7.74  -7.70  -7.70  -7.60  -7.60  -7.59  -7.59  -7.52
         -7.51  -7.51  -7.49  -7.48  -7.48  -7.45  -7.43  -7.43  -7.41  -7.41
         -7.36  -7.31  -7.31  -7.21  -7.19  -7.18  -7.17  -7.01  -7.01  -7.01
         -7.01  -6.77  -6.72  -6.60  -6.59  -6.57  -6.52  -6.29  -6.26  -6.23
         -6.23  -6.22  -6.22  -6.21  -6.21  -6.14  -6.14  -6.13  -6.13  -6.10
         -6.10  -6.09  -6.08  -6.08  -6.03  -6.02  -6.01  -5.99  -5.99  -5.98
         -5.98  -5.97  -5.96  -5.91  -5.88  -5.87  -5.85  -5.84  -5.84  -5.84
         -5.83  -5.83  -5.80  -5.78  -5.77  -5.77  -5.71  -5.71  -5.67  -5.66
         -5.66  -5.64  -5.64  -5.64  -5.64  -5.56  -5.56  -5.54  -5.52  -5.52
         -5.51  -5.51  -5.36  -5.35  -5.35  -5.35  -5.35  -5.35  -5.35  -5.28
         -5.20  -5.20  -5.16  -5.16  -5.07  -5.01  -4.99  -4.87  -4.87  -4.72
         -4.06  -4.06  -3.95  -3.95  -3.63  -2.54  -2.32  -2.20  -1.93  -1.47
         -1.31  -0.23  -0.21  -0.11  -0.10   0.10   0.10   0.23   0.23   0.33
          0.33   5.28
  16  1  -9.98  -9.59  -9.58  -9.18  -9.18  -9.18  -9.18  -9.14  -9.14  -9.12
         -9.09  -9.08  -9.07  -8.94  -8.64  -8.61  -8.60  -8.52  -8.49  -8.40
         -8.38  -8.35  -8.35  -8.31  -8.20  -8.18  -8.18  -8.18  -8.16  -8.16
         -7.81  -7.74  -7.74  -7.70  -7.70  -7.60  -7.60  -7.59  -7.59  -7.52
         -7.51  -7.51  -7.49  -7.48  -7.48  -7.45  -7.43  -7.43  -7.41  -7.41
         -7.36  -7.31  -7.31  -7.21  -7.19  -7.18  -7.17  -7.01  -7.01  -7.01
         -7.01  -6.77  -6.72  -6.60  -6.59  -6.57  -6.52  -6.29  -6.26  -6.23
         -6.23  -6.22  -6.22  -6.21  -6.21  -6.14  -6.14  -6.13  -6.13  -6.10
         -6.10  -6.09  -6.08  -6.08  -6.03  -6.02  -6.01  -5.99  -5.99  -5.98
         -5.98  -5.97  -5.96  -5.91  -5.88  -5.87  -5.85  -5.84  -5.84  -5.84
         -5.83  -5.83  -5.80  -5.78  -5.77  -5.77  -5.71  -5.71  -5.67  -5.66
         -5.66  -5.64  -5.64  -5.64  -5.64  -5.56  -5.56  -5.54  -5.52  -5.52
         -5.51  -5.51  -5.36  -5.35  -5.35  -5.35  -5.35  -5.35  -5.35  -5.28
         -5.20  -5.20  -5.16  -5.16  -5.07  -5.01  -4.99  -4.87  -4.87  -4.72
         -4.06  -4.06  -3.95  -3.95  -3.63  -2.54  -2.32  -2.20  -1.93  -1.47
         -1.31  -0.23  -0.21  -0.11  -0.10   0.10   0.10   0.23   0.23   0.33
          0.33   5.28
  16  2  -9.98  -9.59  -9.58  -9.18  -9.18  -9.18  -9.18  -9.14  -9.14  -9.12
         -9.09  -9.08  -9.07  -8.94  -8.64  -8.61  -8.60  -8.52  -8.49  -8.40
         -8.38  -8.35  -8.35  -8.31  -8.20  -8.18  -8.18  -8.18  -8.16  -8.16
         -7.81  -7.74  -7.74  -7.70  -7.70  -7.60  -7.60  -7.59  -7.59  -7.52
         -7.51  -7.51  -7.49  -7.48  -7.48  -7.45  -7.43  -7.43  -7.41  -7.41
         -7.36  -7.31  -7.31  -7.21  -7.19  -7.18  -7.17  -7.01  -7.01  -7.01
         -7.01  -6.77  -6.72  -6.60  -6.59  -6.57  -6.52  -6.29  -6.26  -6.23
         -6.23  -6.22  -6.22  -6.21  -6.21  -6.14  -6.14  -6.13  -6.13  -6.10
         -6.10  -6.09  -6.08  -6.08  -6.03  -6.02  -6.01  -5.99  -5.99  -5.98
         -5.98  -5.97  -5.96  -5.91  -5.88  -5.87  -5.85  -5.84  -5.84  -5.84
         -5.83  -5.83  -5.80  -5.78  -5.77  -5.77  -5.71  -5.71  -5.67  -5.66
         -5.66  -5.64  -5.64  -5.64  -5.64  -5.56  -5.56  -5.54  -5.52  -5.52
         -5.51  -5.51  -5.36  -5.35  -5.35  -5.35  -5.35  -5.35  -5.35  -5.28
         -5.20  -5.20  -5.16  -5.16  -5.07  -5.01  -4.99  -4.87  -4.87  -4.72
         -4.06  -4.06  -3.95  -3.95  -3.63  -2.54  -2.32  -2.20  -1.93  -1.47
         -1.31  -0.23  -0.21  -0.11  -0.10   0.10   0.10   0.23   0.23   0.33
          0.33   5.28
  17  1  -9.98  -9.59  -9.58  -9.18  -9.18  -9.18  -9.18  -9.14  -9.14  -9.12
         -9.09  -9.08  -9.07  -8.94  -8.64  -8.61  -8.60  -8.52  -8.49  -8.40
         -8.38  -8.35  -8.35  -8.31  -8.20  -8.18  -8.18  -8.18  -8.16  -8.16
         -7.81  -7.74  -7.74  -7.70  -7.70  -7.60  -7.60  -7.59  -7.59  -7.52
         -7.51  -7.51  -7.49  -7.48  -7.48  -7.45  -7.43  -7.43  -7.41  -7.41
         -7.36  -7.31  -7.31  -7.21  -7.19  -7.18  -7.17  -7.01  -7.01  -7.01
         -7.01  -6.77  -6.72  -6.60  -6.59  -6.57  -6.52  -6.29  -6.26  -6.23
         -6.23  -6.22  -6.22  -6.21  -6.21  -6.14  -6.14  -6.13  -6.13  -6.10
         -6.10  -6.09  -6.08  -6.08  -6.03  -6.02  -6.01  -5.99  -5.99  -5.98
         -5.98  -5.97  -5.96  -5.91  -5.88  -5.87  -5.85  -5.84  -5.84  -5.84
         -5.83  -5.83  -5.80  -5.78  -5.77  -5.77  -5.71  -5.71  -5.67  -5.66
         -5.66  -5.64  -5.64  -5.64  -5.64  -5.56  -5.56  -5.54  -5.52  -5.52
         -5.51  -5.51  -5.36  -5.35  -5.35  -5.35  -5.35  -5.35  -5.35  -5.28
         -5.20  -5.20  -5.16  -5.16  -5.07  -5.01  -4.99  -4.87  -4.87  -4.72
         -4.06  -4.06  -3.95  -3.95  -3.63  -2.54  -2.32  -2.20  -1.93  -1.47
         -1.31  -0.23  -0.21  -0.11  -0.10   0.10   0.10   0.23   0.23   0.33
          0.33   5.28
  17  2  -9.98  -9.59  -9.58  -9.18  -9.18  -9.18  -9.18  -9.14  -9.14  -9.12
         -9.09  -9.08  -9.07  -8.94  -8.64  -8.61  -8.60  -8.52  -8.49  -8.40
         -8.38  -8.35  -8.35  -8.31  -8.20  -8.18  -8.18  -8.18  -8.16  -8.16
         -7.81  -7.74  -7.74  -7.70  -7.70  -7.60  -7.60  -7.59  -7.59  -7.52
         -7.51  -7.51  -7.49  -7.48  -7.48  -7.45  -7.43  -7.43  -7.41  -7.41
         -7.36  -7.31  -7.31  -7.21  -7.19  -7.18  -7.17  -7.01  -7.01  -7.01
         -7.01  -6.77  -6.72  -6.60  -6.59  -6.57  -6.52  -6.29  -6.26  -6.23
         -6.23  -6.22  -6.22  -6.21  -6.21  -6.14  -6.14  -6.13  -6.13  -6.10
         -6.10  -6.09  -6.08  -6.08  -6.03  -6.02  -6.01  -5.99  -5.99  -5.98
         -5.98  -5.97  -5.96  -5.91  -5.88  -5.87  -5.85  -5.84  -5.84  -5.84
         -5.83  -5.83  -5.80  -5.78  -5.77  -5.77  -5.71  -5.71  -5.67  -5.66
         -5.66  -5.64  -5.64  -5.64  -5.64  -5.56  -5.56  -5.54  -5.52  -5.52
         -5.51  -5.51  -5.36  -5.35  -5.35  -5.35  -5.35  -5.35  -5.35  -5.28
         -5.20  -5.20  -5.16  -5.16  -5.07  -5.01  -4.99  -4.87  -4.87  -4.72
         -4.06  -4.06  -3.95  -3.95  -3.63  -2.54  -2.32  -2.20  -1.93  -1.47
         -1.31  -0.23  -0.21  -0.11  -0.10   0.10   0.10   0.23   0.23   0.33
          0.33   5.28
  18  1  -9.98  -9.59  -9.58  -9.18  -9.18  -9.18  -9.18  -9.14  -9.14  -9.12
         -9.09  -9.08  -9.07  -8.94  -8.64  -8.61  -8.60  -8.52  -8.49  -8.40
         -8.38  -8.35  -8.35  -8.31  -8.20  -8.18  -8.18  -8.18  -8.16  -8.16
         -7.81  -7.74  -7.74  -7.70  -7.70  -7.60  -7.60  -7.59  -7.59  -7.52
         -7.51  -7.51  -7.49  -7.48  -7.48  -7.45  -7.43  -7.43  -7.41  -7.41
         -7.36  -7.31  -7.31  -7.21  -7.19  -7.18  -7.17  -7.01  -7.01  -7.01
         -7.01  -6.77  -6.72  -6.60  -6.59  -6.57  -6.52  -6.29  -6.26  -6.23
         -6.23  -6.22  -6.22  -6.21  -6.21  -6.14  -6.14  -6.13  -6.13  -6.10
         -6.10  -6.09  -6.08  -6.08  -6.03  -6.02  -6.01  -5.99  -5.99  -5.98
         -5.98  -5.97  -5.96  -5.91  -5.88  -5.87  -5.85  -5.84  -5.84  -5.84
         -5.83  -5.83  -5.80  -5.78  -5.77  -5.77  -5.71  -5.71  -5.67  -5.66
         -5.66  -5.64  -5.64  -5.64  -5.64  -5.56  -5.56  -5.54  -5.52  -5.52
         -5.51  -5.51  -5.36  -5.35  -5.35  -5.35  -5.35  -5.35  -5.35  -5.28
         -5.20  -5.20  -5.16  -5.16  -5.07  -5.01  -4.99  -4.87  -4.87  -4.72
         -4.06  -4.06  -3.95  -3.95  -3.63  -2.54  -2.32  -2.20  -1.93  -1.47
         -1.31  -0.23  -0.21  -0.11  -0.10   0.10   0.10   0.23   0.23   0.33
          0.33   5.28
  18  2  -9.98  -9.59  -9.58  -9.18  -9.18  -9.18  -9.18  -9.14  -9.14  -9.12
         -9.09  -9.08  -9.07  -8.94  -8.64  -8.61  -8.60  -8.52  -8.49  -8.40
         -8.38  -8.35  -8.35  -8.31  -8.20  -8.18  -8.18  -8.18  -8.16  -8.16
         -7.81  -7.74  -7.74  -7.70  -7.70  -7.60  -7.60  -7.59  -7.59  -7.52
         -7.51  -7.51  -7.49  -7.48  -7.48  -7.45  -7.43  -7.43  -7.41  -7.41
         -7.36  -7.31  -7.31  -7.21  -7.19  -7.18  -7.17  -7.01  -7.01  -7.01
         -7.01  -6.77  -6.72  -6.60  -6.59  -6.57  -6.52  -6.29  -6.26  -6.23
         -6.23  -6.22  -6.22  -6.21  -6.21  -6.14  -6.14  -6.13  -6.13  -6.10
         -6.10  -6.09  -6.08  -6.08  -6.03  -6.02  -6.01  -5.99  -5.99  -5.98
         -5.98  -5.97  -5.96  -5.91  -5.88  -5.87  -5.85  -5.84  -5.84  -5.84
         -5.83  -5.83  -5.80  -5.78  -5.77  -5.77  -5.71  -5.71  -5.67  -5.66
         -5.66  -5.64  -5.64  -5.64  -5.64  -5.56  -5.56  -5.54  -5.52  -5.52
         -5.51  -5.51  -5.36  -5.35  -5.35  -5.35  -5.35  -5.35  -5.35  -5.28
         -5.20  -5.20  -5.16  -5.16  -5.07  -5.01  -4.99  -4.87  -4.87  -4.72
         -4.06  -4.06  -3.95  -3.95  -3.63  -2.54  -2.32  -2.20  -1.93  -1.47
         -1.31  -0.23  -0.21  -0.11  -0.10   0.10   0.10   0.23   0.23   0.33
          0.33   5.28
  19  1  -9.98  -9.59  -9.58  -9.18  -9.18  -9.18  -9.18  -9.14  -9.14  -9.12
         -9.09  -9.08  -9.07  -8.94  -8.64  -8.61  -8.60  -8.52  -8.49  -8.40
         -8.38  -8.35  -8.35  -8.31  -8.20  -8.18  -8.18  -8.18  -8.16  -8.16
         -7.81  -7.74  -7.74  -7.70  -7.70  -7.60  -7.60  -7.59  -7.59  -7.52
         -7.51  -7.51  -7.49  -7.48  -7.48  -7.45  -7.43  -7.43  -7.41  -7.41
         -7.36  -7.31  -7.31  -7.21  -7.19  -7.18  -7.17  -7.01  -7.01  -7.01
         -7.01  -6.77  -6.72  -6.60  -6.59  -6.57  -6.52  -6.29  -6.26  -6.23
         -6.23  -6.22  -6.22  -6.21  -6.21  -6.14  -6.14  -6.13  -6.13  -6.10
         -6.10  -6.09  -6.08  -6.08  -6.03  -6.02  -6.01  -5.99  -5.99  -5.98
         -5.98  -5.97  -5.96  -5.91  -5.88  -5.87  -5.85  -5.84  -5.84  -5.84
         -5.83  -5.83  -5.80  -5.78  -5.77  -5.77  -5.71  -5.71  -5.67  -5.66
         -5.66  -5.64  -5.64  -5.64  -5.64  -5.56  -5.56  -5.54  -5.52  -5.52
         -5.51  -5.51  -5.36  -5.35  -5.35  -5.35  -5.35  -5.35  -5.35  -5.28
         -5.20  -5.20  -5.16  -5.16  -5.07  -5.01  -4.99  -4.87  -4.87  -4.72
         -4.06  -4.06  -3.95  -3.95  -3.63  -2.54  -2.32  -2.20  -1.93  -1.47
         -1.31  -0.23  -0.21  -0.11  -0.10   0.10   0.10   0.23   0.23   0.33
          0.33   5.28
  19  2  -9.98  -9.59  -9.58  -9.18  -9.18  -9.18  -9.18  -9.14  -9.14  -9.12
         -9.09  -9.08  -9.07  -8.94  -8.64  -8.61  -8.60  -8.52  -8.49  -8.40
         -8.38  -8.35  -8.35  -8.31  -8.20  -8.18  -8.18  -8.18  -8.16  -8.16
         -7.81  -7.74  -7.74  -7.70  -7.70  -7.60  -7.60  -7.59  -7.59  -7.52
         -7.51  -7.51  -7.49  -7.48  -7.48  -7.45  -7.43  -7.43  -7.41  -7.41
         -7.36  -7.31  -7.31  -7.21  -7.19  -7.18  -7.17  -7.01  -7.01  -7.01
         -7.01  -6.77  -6.72  -6.60  -6.59  -6.57  -6.52  -6.29  -6.26  -6.23
         -6.23  -6.22  -6.22  -6.21  -6.21  -6.14  -6.14  -6.13  -6.13  -6.10
         -6.10  -6.09  -6.08  -6.08  -6.03  -6.02  -6.01  -5.99  -5.99  -5.98
         -5.98  -5.97  -5.96  -5.91  -5.88  -5.87  -5.85  -5.84  -5.84  -5.84
         -5.83  -5.83  -5.80  -5.78  -5.77  -5.77  -5.71  -5.71  -5.67  -5.66
         -5.66  -5.64  -5.64  -5.64  -5.64  -5.56  -5.56  -5.54  -5.52  -5.52
         -5.51  -5.51  -5.36  -5.35  -5.35  -5.35  -5.35  -5.35  -5.35  -5.28
         -5.20  -5.20  -5.16  -5.16  -5.07  -5.01  -4.99  -4.87  -4.87  -4.72
         -4.06  -4.06  -3.95  -3.95  -3.63  -2.54  -2.32  -2.20  -1.93  -1.47
         -1.31  -0.23  -0.21  -0.11  -0.10   0.10   0.10   0.23   0.23   0.33
          0.33   5.28
  20  1  -9.98  -9.59  -9.58  -9.18  -9.18  -9.18  -9.18  -9.14  -9.14  -9.12
         -9.09  -9.08  -9.07  -8.94  -8.64  -8.61  -8.60  -8.52  -8.49  -8.40
         -8.38  -8.35  -8.35  -8.31  -8.20  -8.18  -8.18  -8.18  -8.16  -8.16
         -7.81  -7.74  -7.74  -7.70  -7.70  -7.60  -7.60  -7.59  -7.59  -7.52
         -7.51  -7.51  -7.49  -7.48  -7.48  -7.45  -7.43  -7.43  -7.41  -7.41
         -7.36  -7.31  -7.31  -7.21  -7.19  -7.18  -7.17  -7.01  -7.01  -7.01
         -7.01  -6.77  -6.72  -6.60  -6.59  -6.57  -6.52  -6.29  -6.26  -6.23
         -6.23  -6.22  -6.22  -6.21  -6.21  -6.14  -6.14  -6.13  -6.13  -6.10
         -6.10  -6.09  -6.08  -6.08  -6.03  -6.02  -6.01  -5.99  -5.99  -5.98
         -5.98  -5.97  -5.96  -5.91  -5.88  -5.87  -5.85  -5.84  -5.84  -5.84
         -5.83  -5.83  -5.80  -5.78  -5.77  -5.77  -5.71  -5.71  -5.67  -5.66
         -5.66  -5.64  -5.64  -5.64  -5.64  -5.56  -5.56  -5.54  -5.52  -5.52
         -5.51  -5.51  -5.36  -5.35  -5.35  -5.35  -5.35  -5.35  -5.35  -5.28
         -5.20  -5.20  -5.16  -5.16  -5.07  -5.01  -4.99  -4.87  -4.87  -4.72
         -4.06  -4.06  -3.95  -3.95  -3.63  -2.54  -2.32  -2.20  -1.93  -1.47
         -1.31  -0.23  -0.21  -0.11  -0.10   0.10   0.10   0.23   0.23   0.33
          0.33   5.28
  20  2  -9.98  -9.59  -9.58  -9.18  -9.18  -9.18  -9.18  -9.14  -9.14  -9.12
         -9.09  -9.08  -9.07  -8.94  -8.64  -8.61  -8.60  -8.52  -8.49  -8.40
         -8.38  -8.35  -8.35  -8.31  -8.20  -8.18  -8.18  -8.18  -8.16  -8.16
         -7.81  -7.74  -7.74  -7.70  -7.70  -7.60  -7.60  -7.59  -7.59  -7.52
         -7.51  -7.51  -7.49  -7.48  -7.48  -7.45  -7.43  -7.43  -7.41  -7.41
         -7.36  -7.31  -7.31  -7.21  -7.19  -7.18  -7.17  -7.01  -7.01  -7.01
         -7.01  -6.77  -6.72  -6.60  -6.59  -6.57  -6.52  -6.29  -6.26  -6.23
         -6.23  -6.22  -6.22  -6.21  -6.21  -6.14  -6.14  -6.13  -6.13  -6.10
         -6.10  -6.09  -6.08  -6.08  -6.03  -6.02  -6.01  -5.99  -5.99  -5.98
         -5.98  -5.97  -5.96  -5.91  -5.88  -5.87  -5.85  -5.84  -5.84  -5.84
         -5.83  -5.83  -5.80  -5.78  -5.77  -5.77  -5.71  -5.71  -5.67  -5.66
         -5.66  -5.64  -5.64  -5.64  -5.64  -5.56  -5.56  -5.54  -5.52  -5.52
         -5.51  -5.51  -5.36  -5.35  -5.35  -5.35  -5.35  -5.35  -5.35  -5.28
         -5.20  -5.20  -5.16  -5.16  -5.07  -5.01  -4.99  -4.87  -4.87  -4.72
         -4.06  -4.06  -3.95  -3.95  -3.63  -2.54  -2.32  -2.20  -1.93  -1.47
         -1.31  -0.23  -0.21  -0.11  -0.10   0.10   0.10   0.23   0.23   0.33
          0.33   5.28
  21  1  -9.98  -9.59  -9.58  -9.18  -9.18  -9.18  -9.18  -9.14  -9.14  -9.12
         -9.09  -9.08  -9.07  -8.94  -8.64  -8.61  -8.60  -8.52  -8.49  -8.40
         -8.38  -8.35  -8.35  -8.31  -8.20  -8.18  -8.18  -8.18  -8.16  -8.16
         -7.81  -7.74  -7.74  -7.70  -7.70  -7.60  -7.60  -7.59  -7.59  -7.52
         -7.51  -7.51  -7.49  -7.48  -7.48  -7.45  -7.43  -7.43  -7.41  -7.41
         -7.36  -7.31  -7.31  -7.21  -7.19  -7.18  -7.17  -7.01  -7.01  -7.01
         -7.01  -6.77  -6.72  -6.60  -6.59  -6.57  -6.52  -6.29  -6.26  -6.23
         -6.23  -6.22  -6.22  -6.21  -6.21  -6.14  -6.14  -6.13  -6.13  -6.10
         -6.10  -6.09  -6.08  -6.08  -6.03  -6.02  -6.01  -5.99  -5.99  -5.98
         -5.98  -5.97  -5.96  -5.91  -5.88  -5.87  -5.85  -5.84  -5.84  -5.84
         -5.83  -5.83  -5.80  -5.78  -5.77  -5.77  -5.71  -5.71  -5.67  -5.66
         -5.66  -5.64  -5.64  -5.64  -5.64  -5.56  -5.56  -5.54  -5.52  -5.52
         -5.51  -5.51  -5.36  -5.35  -5.35  -5.35  -5.35  -5.35  -5.35  -5.28
         -5.20  -5.20  -5.16  -5.16  -5.07  -5.01  -4.99  -4.87  -4.87  -4.72
         -4.06  -4.06  -3.95  -3.95  -3.63  -2.54  -2.32  -2.20  -1.93  -1.47
         -1.31  -0.23  -0.21  -0.11  -0.10   0.10   0.10   0.23   0.23   0.33
          0.33   5.28
  21  2  -9.98  -9.59  -9.58  -9.18  -9.18  -9.18  -9.18  -9.14  -9.14  -9.12
         -9.09  -9.08  -9.07  -8.94  -8.64  -8.61  -8.60  -8.52  -8.49  -8.40
         -8.38  -8.35  -8.35  -8.31  -8.20  -8.18  -8.18  -8.18  -8.16  -8.16
         -7.81  -7.74  -7.74  -7.70  -7.70  -7.60  -7.60  -7.59  -7.59  -7.52
         -7.51  -7.51  -7.49  -7.48  -7.48  -7.45  -7.43  -7.43  -7.41  -7.41
         -7.36  -7.31  -7.31  -7.21  -7.19  -7.18  -7.17  -7.01  -7.01  -7.01
         -7.01  -6.77  -6.72  -6.60  -6.59  -6.57  -6.52  -6.29  -6.26  -6.23
         -6.23  -6.22  -6.22  -6.21  -6.21  -6.14  -6.14  -6.13  -6.13  -6.10
         -6.10  -6.09  -6.08  -6.08  -6.03  -6.02  -6.01  -5.99  -5.99  -5.98
         -5.98  -5.97  -5.96  -5.91  -5.88  -5.87  -5.85  -5.84  -5.84  -5.84
         -5.83  -5.83  -5.80  -5.78  -5.77  -5.77  -5.71  -5.71  -5.67  -5.66
         -5.66  -5.64  -5.64  -5.64  -5.64  -5.56  -5.56  -5.54  -5.52  -5.52
         -5.51  -5.51  -5.36  -5.35  -5.35  -5.35  -5.35  -5.35  -5.35  -5.28
         -5.20  -5.20  -5.16  -5.16  -5.07  -5.01  -4.99  -4.87  -4.87  -4.72
         -4.06  -4.06  -3.95  -3.95  -3.63  -2.54  -2.32  -2.20  -1.93  -1.47
         -1.31  -0.23  -0.21  -0.11  -0.10   0.10   0.10   0.23   0.23   0.33
          0.33   5.28
  22  1  -9.98  -9.59  -9.58  -9.18  -9.18  -9.18  -9.18  -9.14  -9.14  -9.12
         -9.09  -9.08  -9.07  -8.94  -8.64  -8.61  -8.60  -8.52  -8.49  -8.40
         -8.38  -8.35  -8.35  -8.31  -8.20  -8.18  -8.18  -8.18  -8.16  -8.16
         -7.81  -7.74  -7.74  -7.70  -7.70  -7.60  -7.60  -7.59  -7.59  -7.52
         -7.51  -7.51  -7.49  -7.48  -7.48  -7.45  -7.43  -7.43  -7.41  -7.41
         -7.36  -7.31  -7.31  -7.21  -7.19  -7.18  -7.17  -7.01  -7.01  -7.01
         -7.01  -6.77  -6.72  -6.60  -6.59  -6.57  -6.52  -6.29  -6.26  -6.23
         -6.23  -6.22  -6.22  -6.21  -6.21  -6.14  -6.14  -6.13  -6.13  -6.10
         -6.10  -6.09  -6.08  -6.08  -6.03  -6.02  -6.01  -5.99  -5.99  -5.98
         -5.98  -5.97  -5.96  -5.91  -5.88  -5.87  -5.85  -5.84  -5.84  -5.84
         -5.83  -5.83  -5.80  -5.78  -5.77  -5.77  -5.71  -5.71  -5.67  -5.66
         -5.66  -5.64  -5.64  -5.64  -5.64  -5.56  -5.56  -5.54  -5.52  -5.52
         -5.51  -5.51  -5.36  -5.35  -5.35  -5.35  -5.35  -5.35  -5.35  -5.28
         -5.20  -5.20  -5.16  -5.16  -5.07  -5.01  -4.99  -4.87  -4.87  -4.72
         -4.06  -4.06  -3.95  -3.95  -3.63  -2.54  -2.32  -2.20  -1.93  -1.47
         -1.31  -0.23  -0.21  -0.11  -0.10   0.10   0.10   0.23   0.23   0.33
          0.33   5.28
[...]
         -5.68  -5.68  -5.66  -5.66  -5.54  -5.47  -5.44  -5.44  -5.44  -5.44
         -5.43  -5.43  -5.37  -5.37  -5.34  -5.34  -5.34  -5.33  -5.33  -5.33
         -5.33  -5.22  -5.18  -5.12  -5.12  -4.88  -4.80  -4.80  -4.78  -4.78
         -4.78  -4.78  -4.24  -3.10  -3.10  -2.36  -2.36  -1.76  -1.76  -1.63
         -1.63  -1.53  -1.53  -0.15   0.72   0.72   0.72   0.72   0.74   0.83
          1.49   1.49
 451  1  -9.83  -9.83  -9.53  -9.18  -9.18  -9.17  -9.17  -9.17  -9.17  -9.12
         -8.98  -8.98  -8.95  -8.95  -8.93  -8.93  -8.55  -8.55  -8.38  -8.33
         -8.33  -8.32  -8.32  -8.32  -8.32  -8.28  -8.16  -8.03  -7.91  -7.91
         -7.76  -7.75  -7.75  -7.72  -7.72  -7.65  -7.65  -7.65  -7.65  -7.63
         -7.60  -7.60  -7.60  -7.60  -7.54  -7.54  -7.44  -7.44  -7.39  -7.34
         -7.31  -7.31  -7.17  -7.17  -7.17  -7.17  -7.05  -7.01  -7.01  -6.83
         -6.83  -6.82  -6.82  -6.70  -6.70  -6.45  -6.37  -6.28  -6.28  -6.22
         -6.22  -6.22  -6.22  -6.22  -6.21  -6.21  -6.20  -6.20  -6.18  -6.16
         -6.16  -6.10  -6.06  -6.06  -6.05  -6.05  -6.04  -6.04  -6.04  -6.04
         -5.95  -5.95  -5.95  -5.95  -5.93  -5.93  -5.93  -5.85  -5.85  -5.79
         -5.79  -5.79  -5.79  -5.70  -5.70  -5.70  -5.68  -5.68  -5.68  -5.68
         -5.68  -5.68  -5.66  -5.66  -5.54  -5.47  -5.44  -5.44  -5.44  -5.44
         -5.43  -5.43  -5.37  -5.37  -5.34  -5.34  -5.34  -5.33  -5.33  -5.33
         -5.33  -5.22  -5.18  -5.12  -5.12  -4.88  -4.80  -4.80  -4.78  -4.78
         -4.78  -4.78  -4.24  -3.10  -3.10  -2.36  -2.36  -1.76  -1.76  -1.63
         -1.63  -1.53  -1.53  -0.15   0.72   0.72   0.72   0.72   0.74   0.83
          1.49   1.49
 451  2  -9.83  -9.83  -9.53  -9.18  -9.18  -9.17  -9.17  -9.17  -9.17  -9.12
         -8.98  -8.98  -8.95  -8.95  -8.93  -8.93  -8.55  -8.55  -8.38  -8.33
         -8.33  -8.32  -8.32  -8.32  -8.32  -8.28  -8.16  -8.03  -7.91  -7.91
         -7.76  -7.75  -7.75  -7.72  -7.72  -7.65  -7.65  -7.65  -7.65  -7.63
         -7.60  -7.60  -7.60  -7.60  -7.54  -7.54  -7.44  -7.44  -7.39  -7.34
         -7.31  -7.31  -7.17  -7.17  -7.17  -7.17  -7.05  -7.01  -7.01  -6.83
         -6.83  -6.82  -6.82  -6.70  -6.70  -6.45  -6.37  -6.28  -6.28  -6.22
         -6.22  -6.22  -6.22  -6.22  -6.21  -6.21  -6.20  -6.20  -6.18  -6.16
         -6.16  -6.10  -6.06  -6.06  -6.05  -6.05  -6.04  -6.04  -6.04  -6.04
         -5.95  -5.95  -5.95  -5.95  -5.93  -5.93  -5.93  -5.85  -5.85  -5.79
         -5.79  -5.79  -5.79  -5.70  -5.70  -5.70  -5.68  -5.68  -5.68  -5.68
         -5.68  -5.68  -5.66  -5.66  -5.54  -5.47  -5.44  -5.44  -5.44  -5.44
         -5.43  -5.43  -5.37  -5.37  -5.34  -5.34  -5.34  -5.33  -5.33  -5.33
         -5.33  -5.22  -5.18  -5.12  -5.12  -4.88  -4.80  -4.80  -4.78  -4.78
         -4.78  -4.78  -4.24  -3.10  -3.10  -2.36  -2.36  -1.76  -1.76  -1.63
         -1.63  -1.53  -1.53  -0.15   0.72   0.72   0.72   0.72   0.74   0.83
          1.49   1.49
 452  1  -9.83  -9.83  -9.53  -9.18  -9.18  -9.17  -9.17  -9.17  -9.17  -9.12
         -8.98  -8.98  -8.95  -8.95  -8.93  -8.93  -8.55  -8.55  -8.38  -8.33
         -8.33  -8.32  -8.32  -8.32  -8.32  -8.28  -8.16  -8.03  -7.91  -7.91
         -7.76  -7.75  -7.75  -7.72  -7.72  -7.65  -7.65  -7.65  -7.65  -7.63
         -7.60  -7.60  -7.60  -7.60  -7.54  -7.54  -7.44  -7.44  -7.39  -7.34
         -7.31  -7.31  -7.17  -7.17  -7.17  -7.17  -7.05  -7.01  -7.01  -6.83
         -6.83  -6.82  -6.82  -6.70  -6.70  -6.45  -6.37  -6.28  -6.28  -6.22
         -6.22  -6.22  -6.22  -6.22  -6.21  -6.21  -6.20  -6.20  -6.18  -6.16
         -6.16  -6.10  -6.06  -6.06  -6.05  -6.05  -6.04  -6.04  -6.04  -6.04
         -5.95  -5.95  -5.95  -5.95  -5.93  -5.93  -5.93  -5.85  -5.85  -5.79
         -5.79  -5.79  -5.79  -5.70  -5.70  -5.70  -5.68  -5.68  -5.68  -5.68
         -5.68  -5.68  -5.66  -5.66  -5.54  -5.47  -5.44  -5.44  -5.44  -5.44
         -5.43  -5.43  -5.37  -5.37  -5.34  -5.34  -5.34  -5.33  -5.33  -5.33
         -5.33  -5.22  -5.18  -5.12  -5.12  -4.88  -4.80  -4.80  -4.78  -4.78
         -4.78  -4.78  -4.24  -3.10  -3.10  -2.36  -2.36  -1.76  -1.76  -1.63
         -1.63  -1.53  -1.53  -0.15   0.72   0.72   0.72   0.72   0.74   0.83
          1.49   1.49
 452  2  -9.83  -9.83  -9.53  -9.18  -9.18  -9.17  -9.17  -9.17  -9.17  -9.12
         -8.98  -8.98  -8.95  -8.95  -8.93  -8.93  -8.55  -8.55  -8.38  -8.33
         -8.33  -8.32  -8.32  -8.32  -8.32  -8.28  -8.16  -8.03  -7.91  -7.91
         -7.76  -7.75  -7.75  -7.72  -7.72  -7.65  -7.65  -7.65  -7.65  -7.63
         -7.60  -7.60  -7.60  -7.60  -7.54  -7.54  -7.44  -7.44  -7.39  -7.34
         -7.31  -7.31  -7.17  -7.17  -7.17  -7.17  -7.05  -7.01  -7.01  -6.83
         -6.83  -6.82  -6.82  -6.70  -6.70  -6.45  -6.37  -6.28  -6.28  -6.22
         -6.22  -6.22  -6.22  -6.22  -6.21  -6.21  -6.20  -6.20  -6.18  -6.16
         -6.16  -6.10  -6.06  -6.06  -6.05  -6.05  -6.04  -6.04  -6.04  -6.04
         -5.95  -5.95  -5.95  -5.95  -5.93  -5.93  -5.93  -5.85  -5.85  -5.79
         -5.79  -5.79  -5.79  -5.70  -5.70  -5.70  -5.68  -5.68  -5.68  -5.68
         -5.68  -5.68  -5.66  -5.66  -5.54  -5.47  -5.44  -5.44  -5.44  -5.44
         -5.43  -5.43  -5.37  -5.37  -5.34  -5.34  -5.34  -5.33  -5.33  -5.33
         -5.33  -5.22  -5.18  -5.12  -5.12  -4.88  -4.80  -4.80  -4.78  -4.78
         -4.78  -4.78  -4.24  -3.10  -3.10  -2.36  -2.36  -1.76  -1.76  -1.63
         -1.63  -1.53  -1.53  -0.15   0.72   0.72   0.72   0.72   0.74   0.83
          1.49   1.49
 453  1  -9.83  -9.83  -9.53  -9.18  -9.18  -9.17  -9.17  -9.17  -9.17  -9.12
         -8.98  -8.98  -8.95  -8.95  -8.93  -8.93  -8.55  -8.55  -8.38  -8.33
         -8.33  -8.32  -8.32  -8.32  -8.32  -8.28  -8.16  -8.03  -7.91  -7.91
         -7.76  -7.75  -7.75  -7.72  -7.72  -7.65  -7.65  -7.65  -7.65  -7.63
         -7.60  -7.60  -7.60  -7.60  -7.54  -7.54  -7.44  -7.44  -7.39  -7.34
         -7.31  -7.31  -7.17  -7.17  -7.17  -7.17  -7.05  -7.01  -7.01  -6.83
         -6.83  -6.82  -6.82  -6.70  -6.70  -6.45  -6.37  -6.28  -6.28  -6.22
         -6.22  -6.22  -6.22  -6.22  -6.21  -6.21  -6.20  -6.20  -6.18  -6.16
         -6.16  -6.10  -6.06  -6.06  -6.05  -6.05  -6.04  -6.04  -6.04  -6.04
         -5.95  -5.95  -5.95  -5.95  -5.93  -5.93  -5.93  -5.85  -5.85  -5.79
         -5.79  -5.79  -5.79  -5.70  -5.70  -5.70  -5.68  -5.68  -5.68  -5.68
         -5.68  -5.68  -5.66  -5.66  -5.54  -5.47  -5.44  -5.44  -5.44  -5.44
         -5.43  -5.43  -5.37  -5.37  -5.34  -5.34  -5.34  -5.33  -5.33  -5.33
         -5.33  -5.22  -5.18  -5.12  -5.12  -4.88  -4.80  -4.80  -4.78  -4.78
         -4.78  -4.78  -4.24  -3.10  -3.10  -2.36  -2.36  -1.76  -1.76  -1.63
         -1.63  -1.53  -1.53  -0.15   0.72   0.72   0.72   0.72   0.74   0.83
          1.49   1.49
 453  2  -9.83  -9.83  -9.53  -9.18  -9.18  -9.17  -9.17  -9.17  -9.17  -9.12
         -8.98  -8.98  -8.95  -8.95  -8.93  -8.93  -8.55  -8.55  -8.38  -8.33
         -8.33  -8.32  -8.32  -8.32  -8.32  -8.28  -8.16  -8.03  -7.91  -7.91
         -7.76  -7.75  -7.75  -7.72  -7.72  -7.65  -7.65  -7.65  -7.65  -7.63
         -7.60  -7.60  -7.60  -7.60  -7.54  -7.54  -7.44  -7.44  -7.39  -7.34
         -7.31  -7.31  -7.17  -7.17  -7.17  -7.17  -7.05  -7.01  -7.01  -6.83
         -6.83  -6.82  -6.82  -6.70  -6.70  -6.45  -6.37  -6.28  -6.28  -6.22
         -6.22  -6.22  -6.22  -6.22  -6.21  -6.21  -6.20  -6.20  -6.18  -6.16
         -6.16  -6.10  -6.06  -6.06  -6.05  -6.05  -6.04  -6.04  -6.04  -6.04
         -5.95  -5.95  -5.95  -5.95  -5.93  -5.93  -5.93  -5.85  -5.85  -5.79
         -5.79  -5.79  -5.79  -5.70  -5.70  -5.70  -5.68  -5.68  -5.68  -5.68
         -5.68  -5.68  -5.66  -5.66  -5.54  -5.47  -5.44  -5.44  -5.44  -5.44
         -5.43  -5.43  -5.37  -5.37  -5.34  -5.34  -5.34  -5.33  -5.33  -5.33
         -5.33  -5.22  -5.18  -5.12  -5.12  -4.88  -4.80  -4.80  -4.78  -4.78
         -4.78  -4.78  -4.24  -3.10  -3.10  -2.36  -2.36  -1.76  -1.76  -1.63
         -1.63  -1.53  -1.53  -0.15   0.72   0.72   0.72   0.72   0.74   0.83
          1.49   1.49
 454  1  -9.83  -9.83  -9.53  -9.18  -9.18  -9.17  -9.17  -9.17  -9.17  -9.12
         -8.98  -8.98  -8.95  -8.95  -8.93  -8.93  -8.55  -8.55  -8.38  -8.33
         -8.33  -8.32  -8.32  -8.32  -8.32  -8.28  -8.16  -8.03  -7.91  -7.91
         -7.76  -7.75  -7.75  -7.72  -7.72  -7.65  -7.65  -7.65  -7.65  -7.63
         -7.60  -7.60  -7.60  -7.60  -7.54  -7.54  -7.44  -7.44  -7.39  -7.34
         -7.31  -7.31  -7.17  -7.17  -7.17  -7.17  -7.05  -7.01  -7.01  -6.83
         -6.83  -6.82  -6.82  -6.70  -6.70  -6.45  -6.37  -6.28  -6.28  -6.22
         -6.22  -6.22  -6.22  -6.22  -6.21  -6.21  -6.20  -6.20  -6.18  -6.16
         -6.16  -6.10  -6.06  -6.06  -6.05  -6.05  -6.04  -6.04  -6.04  -6.04
         -5.95  -5.95  -5.95  -5.95  -5.93  -5.93  -5.93  -5.85  -5.85  -5.79
         -5.79  -5.79  -5.79  -5.70  -5.70  -5.70  -5.68  -5.68  -5.68  -5.68
         -5.68  -5.68  -5.66  -5.66  -5.54  -5.47  -5.44  -5.44  -5.44  -5.44
         -5.43  -5.43  -5.37  -5.37  -5.34  -5.34  -5.34  -5.33  -5.33  -5.33
         -5.33  -5.22  -5.18  -5.12  -5.12  -4.88  -4.80  -4.80  -4.78  -4.78
         -4.78  -4.78  -4.24  -3.10  -3.10  -2.36  -2.36  -1.76  -1.76  -1.63
         -1.63  -1.53  -1.53  -0.15   0.72   0.72   0.72   0.72   0.74   0.83
          1.49   1.49
 454  2  -9.83  -9.83  -9.53  -9.18  -9.18  -9.17  -9.17  -9.17  -9.17  -9.12
         -8.98  -8.98  -8.95  -8.95  -8.93  -8.93  -8.55  -8.55  -8.38  -8.33
         -8.33  -8.32  -8.32  -8.32  -8.32  -8.28  -8.16  -8.03  -7.91  -7.91
         -7.76  -7.75  -7.75  -7.72  -7.72  -7.65  -7.65  -7.65  -7.65  -7.63
         -7.60  -7.60  -7.60  -7.60  -7.54  -7.54  -7.44  -7.44  -7.39  -7.34
         -7.31  -7.31  -7.17  -7.17  -7.17  -7.17  -7.05  -7.01  -7.01  -6.83
         -6.83  -6.82  -6.82  -6.70  -6.70  -6.45  -6.37  -6.28  -6.28  -6.22
         -6.22  -6.22  -6.22  -6.22  -6.21  -6.21  -6.20  -6.20  -6.18  -6.16
         -6.16  -6.10  -6.06  -6.06  -6.05  -6.05  -6.04  -6.04  -6.04  -6.04
         -5.95  -5.95  -5.95  -5.95  -5.93  -5.93  -5.93  -5.85  -5.85  -5.79
         -5.79  -5.79  -5.79  -5.70  -5.70  -5.70  -5.68  -5.68  -5.68  -5.68
         -5.68  -5.68  -5.66  -5.66  -5.54  -5.47  -5.44  -5.44  -5.44  -5.44
         -5.43  -5.43  -5.37  -5.37  -5.34  -5.34  -5.34  -5.33  -5.33  -5.33
         -5.33  -5.22  -5.18  -5.12  -5.12  -4.88  -4.80  -4.80  -4.78  -4.78
         -4.78  -4.78  -4.24  -3.10  -3.10  -2.36  -2.36  -1.76  -1.76  -1.63
         -1.63  -1.53  -1.53  -0.15   0.72   0.72   0.72   0.72   0.74   0.83
          1.49   1.49
 455  1  -9.83  -9.83  -9.53  -9.18  -9.18  -9.17  -9.17  -9.17  -9.17  -9.12
         -8.98  -8.98  -8.95  -8.95  -8.93  -8.93  -8.55  -8.55  -8.38  -8.33
         -8.33  -8.32  -8.32  -8.32  -8.32  -8.28  -8.16  -8.03  -7.91  -7.91
         -7.76  -7.75  -7.75  -7.72  -7.72  -7.65  -7.65  -7.65  -7.65  -7.63
         -7.60  -7.60  -7.60  -7.60  -7.54  -7.54  -7.44  -7.44  -7.39  -7.34
         -7.31  -7.31  -7.17  -7.17  -7.17  -7.17  -7.05  -7.01  -7.01  -6.83
         -6.83  -6.82  -6.82  -6.70  -6.70  -6.45  -6.37  -6.28  -6.28  -6.22
         -6.22  -6.22  -6.22  -6.22  -6.21  -6.21  -6.20  -6.20  -6.18  -6.16
         -6.16  -6.10  -6.06  -6.06  -6.05  -6.05  -6.04  -6.04  -6.04  -6.04
         -5.95  -5.95  -5.95  -5.95  -5.93  -5.93  -5.93  -5.85  -5.85  -5.79
         -5.79  -5.79  -5.79  -5.70  -5.70  -5.70  -5.68  -5.68  -5.68  -5.68
         -5.68  -5.68  -5.66  -5.66  -5.54  -5.47  -5.44  -5.44  -5.44  -5.44
         -5.43  -5.43  -5.37  -5.37  -5.34  -5.34  -5.34  -5.33  -5.33  -5.33
         -5.33  -5.22  -5.18  -5.12  -5.12  -4.88  -4.80  -4.80  -4.78  -4.78
         -4.78  -4.78  -4.24  -3.10  -3.10  -2.36  -2.36  -1.76  -1.76  -1.63
         -1.63  -1.53  -1.53  -0.15   0.72   0.72   0.72   0.72   0.74   0.83
          1.49   1.49
 455  2  -9.83  -9.83  -9.53  -9.18  -9.18  -9.17  -9.17  -9.17  -9.17  -9.12
         -8.98  -8.98  -8.95  -8.95  -8.93  -8.93  -8.55  -8.55  -8.38  -8.33
         -8.33  -8.32  -8.32  -8.32  -8.32  -8.28  -8.16  -8.03  -7.91  -7.91
         -7.76  -7.75  -7.75  -7.72  -7.72  -7.65  -7.65  -7.65  -7.65  -7.63
         -7.60  -7.60  -7.60  -7.60  -7.54  -7.54  -7.44  -7.44  -7.39  -7.34
         -7.31  -7.31  -7.17  -7.17  -7.17  -7.17  -7.05  -7.01  -7.01  -6.83
         -6.83  -6.82  -6.82  -6.70  -6.70  -6.45  -6.37  -6.28  -6.28  -6.22
         -6.22  -6.22  -6.22  -6.22  -6.21  -6.21  -6.20  -6.20  -6.18  -6.16
         -6.16  -6.10  -6.06  -6.06  -6.05  -6.05  -6.04  -6.04  -6.04  -6.04
         -5.95  -5.95  -5.95  -5.95  -5.93  -5.93  -5.93  -5.85  -5.85  -5.79
         -5.79  -5.79  -5.79  -5.70  -5.70  -5.70  -5.68  -5.68  -5.68  -5.68
         -5.68  -5.68  -5.66  -5.66  -5.54  -5.47  -5.44  -5.44  -5.44  -5.44
         -5.43  -5.43  -5.37  -5.37  -5.34  -5.34  -5.34  -5.33  -5.33  -5.33
         -5.33  -5.22  -5.18  -5.12  -5.12  -4.88  -4.80  -4.80  -4.78  -4.78
         -4.78  -4.78  -4.24  -3.10  -3.10  -2.36  -2.36  -1.76  -1.76  -1.63
         -1.63  -1.53  -1.53  -0.15   0.72   0.72   0.72   0.72   0.74   0.83
          1.49   1.49
siesta: Fermi energy =      -1.788006 eV

siesta: Program's energy decomposition (eV):
siesta: Ebs     =     -1955.193184
siesta: Eions   =     26196.860726
siesta: Ena     =       205.577942
siesta: Ekin    =     18283.509563
siesta: Enl     =    -12916.115548
siesta: Eso     =         0.000000
siesta: Eldau   =         0.000000
siesta: DEna    =        15.538531
siesta: DUscf   =         2.336382
siesta: DUext   =         0.000000
siesta: Exc     =     -3913.296503
siesta: eta*DQ  =         0.000000
siesta: Emadel  =         0.000000
siesta: Emeta   =         0.000000
siesta: Emolmec =         0.000000
siesta: Ekinion =         0.000000
siesta: Eharris =    -24519.310359
siesta: Etot    =    -24519.310359
siesta: FreeEng =    -24519.332089

siesta: Final energy (eV):
siesta:  Band Struct. =   -1955.193184
siesta:       Kinetic =   18283.509563
siesta:       Hartree =  119087.098916
siesta:       Eldau   =       0.000000
siesta:       Eso     =       0.000000
siesta:    Ext. field =       0.000000
siesta:   Exch.-corr. =   -3913.296503
siesta:  Ion-electron = -253289.987954
siesta:       Ion-ion =   95313.365619
siesta:       Ekinion =       0.000000
siesta:         Total =  -24519.310359
siesta:         Fermi =      -1.788006

siesta: Atomic forces (eV/Ang):
siesta:      1   -1.126683   -1.126683   -0.000000
siesta:      2    1.127113   -1.125946    0.000000
siesta:      3    1.127436    1.127436   -0.000000
siesta:      4   -1.125946    1.127113    0.000000
siesta:      5   -0.000263   -0.931136    0.000000
siesta:      6   -0.001042   -0.001042    0.000000
siesta:      7   -1.126683   -1.126683   -0.000000
siesta:      8    1.127113   -1.125946   -0.000000
siesta:      9    0.932293    0.000647    0.000000
siesta:     10    1.127436    1.127436   -0.000000
siesta:     11   -0.931136   -0.000263    0.000000
siesta:     12   -1.125946    1.127113    0.000000
siesta:     13    0.000647    0.932293    0.000000
siesta:     14   -0.000263   -0.931136    0.000000
siesta:     15   -0.001042   -0.001042    0.000000
siesta:     16   -1.126683   -1.126683   -0.000000
siesta:     17    1.127113   -1.125946   -0.000000
siesta:     18    0.932293    0.000647    0.000000
siesta:     19    1.127436    1.127436   -0.000000
siesta:     20   -0.931136   -0.000263    0.000000
siesta:     21   -1.125946    1.127113    0.000000
siesta:     22    0.000647    0.932293    0.000000
siesta:     23   -0.000263   -0.931136    0.000000
siesta:     24   -0.001042   -0.001042    0.000000
siesta:     25    0.932293    0.000647    0.000000
siesta:     26   -0.931136   -0.000263    0.000000
siesta:     27    0.000647    0.932293    0.000000
siesta: ----------------------------------------
siesta:    Tot    0.007253    0.007253    0.000000

siesta: Stress tensor (static) (eV/Ang**3):
siesta:    -0.003224   -0.000001   -0.000000
siesta:    -0.000001   -0.003224   -0.000000
siesta:     0.000000    0.000000   -0.002563

siesta: Cell volume =      10989.000000 Ang**3

siesta: Pressure (static):
siesta:                Solid            Molecule  Units
siesta:           0.00003271          0.00000923  Ry/Bohr**3
siesta:           0.00300375          0.00084733  eV/Ang**3
siesta:           4.81258766          1.35757932  kBar
(Free)E+ p_basis*V_orbitals  =      -24511.445750
(Free)Eharris+ p_basis*V_orbitals  =      -24511.445750

siesta: Total spin polarization (Qup-Qdown) =    0.000186

siesta: Electric dipole (a.u.)  =   -0.000015   -0.000015    0.000000
siesta: Electric dipole (Debye) =   -0.000037   -0.000037    0.000000

dhscf: Vacuum level (max, mean) =    0.066050    0.051383 eV

timer: Elapsed wall time (sec) =     572.765
timer: CPU execution times (sec):

Routine            Calls   Time/call    Tot.time        %
siesta                 1     572.211     572.211   100.00
Setup                  1       0.049       0.049     0.01
bands                  1       0.000       0.000     0.00
KSV_init               1       0.000       0.000     0.00
IterGeom               1     569.405     569.405    99.51
state_init             1       0.025       0.025     0.00
hsparse                1       0.002       0.002     0.00
overlap                1       0.021       0.021     0.00
Setup_H0               1       3.884       3.884     0.68
naefs                  2       0.000       0.000     0.00
MolMec                 2       0.000       0.000     0.00
kinefsm                2       0.012       0.024     0.00
nlefsm                 2       0.026       0.051     0.01
DHSCF_Init             1       3.831       3.831     0.67
DHSCF1                 1       0.094       0.094     0.02
INITMESH               1       0.000       0.000     0.00
DHSCF2                 1       3.737       3.737     0.65
REMESH                 1       0.575       0.575     0.10
REORD                 87       0.026       2.233     0.39
PHION                  1       1.368       1.368     0.24
COMM_BSC              82       0.026       2.114     0.37
POISON                21       1.005      21.112     3.69
fft                   42       0.394      16.562     2.89
IterSCF               17      32.953     560.199    97.90
setup_H               18       2.674      48.124     8.41
DHSCF                 20       2.777      55.537     9.71
DHSCF3                20       2.648      52.952     9.25
rhoofd                20       0.226       4.527     0.79
CellXC                20       0.470       9.405     1.64
cellXC                20       0.470       9.405     1.64
vmat                  19       0.197       3.748     0.65
writeHSX              19       0.003       0.051     0.01
compute_dm            17      30.121     512.054    89.49
diagon                17      30.121     512.052    89.49
c-eigval           15470       0.009     145.412    25.41
c-buildHS          15470       0.000       3.990     0.70
cdiag              30940       0.013     387.377    67.70
cdiag1             30940       0.001      24.014     4.20
cdiag2             30940       0.002      72.081    12.60
cdiag3             30940       0.009     264.973    46.31
cdiag4             30940       0.001      26.119     4.56
c-eigvec           15470       0.016     249.829    43.66
c-buildD           15470       0.008     116.434    20.35
MIXER                 16       0.001       0.011     0.00
PostSCF                1       5.297       5.297     0.93
DHSCF4                 1       2.585       2.585     0.45
dfscf                  1       1.669       1.669     0.29
overfsm                1       0.005       0.005     0.00
state_analysis         1       0.000       0.000     0.00
siesta_move            1       0.000       0.000     0.00
Analysis               1       2.747       2.747     0.48
optical                1       0.000       0.000     0.00
  
>> End of run:  15-NOV-2023  16:46:33
Job completed
