
                           ***********************       
                           *  WELCOME TO SIESTA  *       
                           ***********************       

reinit: Reading from standard input
reinit: Dumped input in INPUT_TMP.51739
************************** Dump of input data file ****************************
SystemName  em
SystemLabel em
==================================================
==================================================
# SPECIES AND BASIS
# Number of species
NumberOfSpecies 5
%block ChemicalSpeciesLabel
  1   79  Au
  2    6  C
  3    1  H
  4    7  N
  5    8  O
%endblock ChemicalSpeciesLabel
%block    PAO.BasisSizes
  Au        SZ
   N        DZP
   C        DZP
   H        DZP
   O        DZP
%endblock PAO.BasisSizes
%block PS.lmax
  Au  2
%endblock PS.lmax
==================================================
==================================================
# K-points
%block kgrid_Monkhorst_Pack
3   0   0   0.0
0   3   0   0.0
0   0   3   0.0
%endblock kgrid_Monkhorst_Pack
T CELL AND ATOMIC POSITIONS
==================================================
==================================================
# UNIT CELL AND ATOMIC POSITIONS
# UNIT CELL
LatticeConstant       1.00 Ang
%block LatticeVectors
30.00000000   0.00000000000   0.0000000000
0.000000000   30.0000000000   0.0000000000
0.000000000   0.00000000000  80.4717069000
%endblock LatticeVectors
# Atomic coordinates
NumberOfAtoms 203
AtomicCoordinatesFormat ScaledCartesian
%block AtomicCoordinatesAndAtomicSpecies < ../em.fdf
==================================================
==================================================
# General variables
#ElectronicTemperature  100 K
MeshCutoff           350. Ry
xc.functional         LDA           # Exchange-correlation functional
xc.authors            CA
SpinPolarized .true.
SolutionMethod diagon
#SolutionMethod Transiesta
NetCharge		1
==================================================
==================================================
# SCF variables
DM.MixSCF1   T
MaxSCFIterations      300           # Maximum number of SCF iter
DM.MixingWeight       0.03          # New DM amount for next SCF cycle
DM.Tolerance          1.d-4         # Tolerance in maximum difference
DM.UseSaveDM          true          # to use continuation files
DM.NumberPulay         5
Diag.DivideAndConquer  no
Diag.ParallelOverK     yes
==================================================
==================================================
# MD variables
MD.FinalTimeStep 1
MD.TypeOfRun CG
MD.NumCGsteps     000
MD.UseSaveXV      .true.
==================================================
==================================================
# Output variables
WriteMullikenPop                1
WriteBands                      .false.
SaveRho                         .false.
SaveDeltaRho                    .false.
SaveHS                          .true.
SaveElectrostaticPotential      True
SaveTotalPotential              no
WriteCoorXmol                   .true.
WriteMDXmol                     .true.
WriteMDhistory                  .false.
WriteEigenvalues                yes
==================================================
==================================================
# Transiesta information
# GF OPTIONS
TS.ComplexContour.Emin    -30.0 eV
TS.ComplexContour.NPoles       10
TS.ComplexContour.NCircle      30
TS.ComplexContour.NLine        10
# BIAS OPTIONS
TS.biasContour.NumPoints       00
# TS OPTIONS
TS.Voltage 0.000000 eV
# TBT OPTIONS
TS.TBT.Emin -5.0 eV
TS.TBT.Emax +5.0 eV
TS.TBT.NPoints 500
TS.TBT.NEigen 3
TS.TBT.Eta        0.000001 Ry
# Write hamiltonian
TS.SaveHS   .true.
# LEFT ELECTRODE
TS.HSFileLeft  ./Au_Elec_ABC.TSHS
#TS.ReplicateA1Left    1
#TS.ReplicateA2Left    1
TS.NumUsedAtomsLeft    9
TS.BufferAtomsLeft     0
# RIGHT ELECTRODE
TS.HSFileRight  ./Au_Elec_ABC.TSHS
#TS.ReplicateA1Right   1
#TS.ReplicateA2Right   1
TS.NumUsedAtomsRight   9
TS.BufferAtomsRight    0
==================================================
==================================================
************************** End of input data file *****************************

reinit: -----------------------------------------------------------------------
reinit: System Name: em
reinit: -----------------------------------------------------------------------
reinit: System Label: em
reinit: -----------------------------------------------------------------------
Siesta Version: siesta-4.1--736
Architecture  : unknown
Compiler flags: gfortran -O2 -fPIC -ftree-vectorize -fallow-argument-mismatch
PP flags      : -DFC_HAVE_ABORT
Libraries     : libsiestaLAPACK.a libsiestaBLAS.a
SERIAL version

* Running in serial mode
>> Start of run:  24-JUN-2025  11:16:29

initatom: Reading input for the pseudopotentials and atomic orbitals ----------
Species number:   1 Atomic number:   79 Label: Au
Species number:   2 Atomic number:    6 Label: C
Species number:   3 Atomic number:    1 Label: H
Species number:   4 Atomic number:    7 Label: N
Species number:   5 Atomic number:    8 Label: O

Ground state valence configuration:   6s01  5d10
Reading pseudopotential information in formatted form from Au.psf

Valence configuration for pseudopotential generation:
6s( 1.00) rc: 2.60
6p( 0.00) rc: 2.77
5d(10.00) rc: 2.60
5f( 0.00) rc: 2.60
Ground state valence configuration:   2s02  2p02
Reading pseudopotential information in formatted form from C.psf

Valence configuration for pseudopotential generation:
2s( 2.00) rc: 1.54
2p( 2.00) rc: 1.54
3d( 0.00) rc: 1.54
4f( 0.00) rc: 1.54
Ground state valence configuration:   1s01
Reading pseudopotential information in formatted form from H.psf

Valence configuration for pseudopotential generation:
1s( 1.00) rc: 1.31
2p( 0.00) rc: 1.31
3d( 0.00) rc: 0.37
4f( 0.00) rc: 1.31
Ground state valence configuration:   2s02  2p03
Reading pseudopotential information in formatted form from N.psf

Valence configuration for pseudopotential generation:
2s( 2.00) rc: 1.48
2p( 3.00) rc: 1.48
3d( 0.00) rc: 1.48
4f( 0.00) rc: 1.48
Ground state valence configuration:   2s02  2p04
Reading pseudopotential information in formatted form from O.psf

Valence configuration for pseudopotential generation:
2s( 2.00) rc: 1.47
2p( 4.00) rc: 1.47
3d( 0.00) rc: 1.47
4f( 0.00) rc: 1.47
resizes: Read basis size for species Au = sz                  
resizes: Read basis size for species N = dzp                 
resizes: Read basis size for species C = dzp                 
resizes: Read basis size for species H = dzp                 
resizes: Read basis size for species O = dzp                 
relmxkb: Read Max KB Ang. Momentum=    2 for species Au
For C, standard SIESTA heuristics set lmxkb to 3
 (one more than the basis l, including polarization orbitals).
Use PS.lmax or PS.KBprojectors blocks to override.
For H, standard SIESTA heuristics set lmxkb to 2
 (one more than the basis l, including polarization orbitals).
Use PS.lmax or PS.KBprojectors blocks to override.
For N, standard SIESTA heuristics set lmxkb to 3
 (one more than the basis l, including polarization orbitals).
Use PS.lmax or PS.KBprojectors blocks to override.
For O, standard SIESTA heuristics set lmxkb to 3
 (one more than the basis l, including polarization orbitals).
Use PS.lmax or PS.KBprojectors blocks to override.

<basis_specs>
===============================================================================
Au                   Z=  79    Mass=  196.97        Charge= 0.17977+309
Lmxo=2 Lmxkb= 2    BasisType=split      Semic=F
L=0  Nsemic=0  Cnfigmx=6
          n=1  nzeta=1  polorb=0
            splnorm:   0.15000    
               vcte:    0.0000    
               rinn:    0.0000    
               qcoe:    0.0000    
               qyuk:    0.0000    
               qwid:   0.10000E-01
                rcs:    0.0000    
            lambdas:    1.0000    
L=1  Nsemic=0  Cnfigmx=6
L=2  Nsemic=0  Cnfigmx=5
          n=1  nzeta=1  polorb=0
            splnorm:   0.15000    
               vcte:    0.0000    
               rinn:    0.0000    
               qcoe:    0.0000    
               qyuk:    0.0000    
               qwid:   0.10000E-01
                rcs:    0.0000    
            lambdas:    1.0000    
-------------------------------------------------------------------------------
L=0  Nkbl=1  erefs: 0.17977+309
L=1  Nkbl=1  erefs: 0.17977+309
L=2  Nkbl=1  erefs: 0.17977+309
===============================================================================
</basis_specs>

atom: Called for Au                    (Z =  79)

read_vps: Pseudopotential generation method:
read_vps: ATM3      Troullier-Martins                       
Total valence charge:   11.00000

xc_check: Exchange-correlation functional:
xc_check: Ceperley-Alder
V l=0 = -2*Zval/r beyond r=  3.8789
V l=1 = -2*Zval/r beyond r=  3.8789
V l=2 = -2*Zval/r beyond r=  3.8789
All V_l potentials equal beyond r=  2.7334
This should be close to max(r_c) in ps generation
All pots = -2*Zval/r beyond r=  3.8789
Using large-core scheme for Vlocal

atom: Estimated core radius    3.87887

atom: Including non-local core corrections could be a good idea
atom: Maximum radius for 4*pi*r*r*local-pseudopot. charge    4.23357
atom: Maximum radius for r*vlocal+2*Zval:    3.92766
GHOST: No ghost state for L =  0
GHOST: No ghost state for L =  1
GHOST: No ghost state for L =  2

KBgen: Kleinman-Bylander projectors: 
   l= 0   rc=  2.837834   el= -0.325216   Ekb=  3.092226   kbcos=  0.236106
   l= 1   rc=  2.837834   el= -0.069662   Ekb=  1.440738   kbcos=  0.234618
   l= 2   rc=  2.802581   el= -0.609192   Ekb= -6.338546   kbcos= -0.737961

KBgen: Total number of  Kleinman-Bylander projectors:    9
atom: -------------------------------------------------------------------------

atom: SANKEY-TYPE ORBITALS:

SPLIT: Orbitals with angular momentum L= 0

SPLIT: Basis orbitals for state 6s

SPLIT: PAO cut-off radius determined from an
SPLIT: energy shift=  0.020000 Ry

   izeta = 1
                 lambda =    1.000000
                     rc =    6.723087
                 energy =   -0.304906
                kinetic =    0.318820
    potential(screened) =   -0.623726
       potential(ionic) =   -7.635970

SPLIT: Orbitals with angular momentum L= 2

SPLIT: Basis orbitals for state 5d

SPLIT: PAO cut-off radius determined from an
SPLIT: energy shift=  0.020000 Ry

   izeta = 1
                 lambda =    1.000000
                     rc =    4.180976
                 energy =   -0.591057
                kinetic =    5.026279
    potential(screened) =   -5.617337
       potential(ionic) =  -16.519179
atom: Total number of Sankey-type orbitals:  6

atm_pop: Valence configuration (for local Pseudopot. screening):
 6s( 1.00)                                                            
 6p( 0.00)                                                            
 5d(10.00)                                                            
Vna: chval, zval:   11.00000  11.00000

Vna:  Cut-off radius for the neutral-atom potential:   6.723087

atom: _________________________________________________________________________

<basis_specs>
===============================================================================
C                    Z=   6    Mass=  12.010        Charge= 0.17977+309
Lmxo=1 Lmxkb= 3    BasisType=split      Semic=F
L=0  Nsemic=0  Cnfigmx=2
          n=1  nzeta=2  polorb=0
            splnorm:   0.15000    
               vcte:    0.0000    
               rinn:    0.0000    
               qcoe:    0.0000    
               qyuk:    0.0000    
               qwid:   0.10000E-01
                rcs:    0.0000      0.0000    
            lambdas:    1.0000      1.0000    
L=1  Nsemic=0  Cnfigmx=2
          n=1  nzeta=2  polorb=1
            splnorm:   0.15000    
               vcte:    0.0000    
               rinn:    0.0000    
               qcoe:    0.0000    
               qyuk:    0.0000    
               qwid:   0.10000E-01
                rcs:    0.0000      0.0000    
            lambdas:    1.0000      1.0000    
-------------------------------------------------------------------------------
L=0  Nkbl=1  erefs: 0.17977+309
L=1  Nkbl=1  erefs: 0.17977+309
L=2  Nkbl=1  erefs: 0.17977+309
L=3  Nkbl=1  erefs: 0.17977+309
===============================================================================
</basis_specs>

atom: Called for C                     (Z =   6)

read_vps: Pseudopotential generation method:
read_vps: ATM3      Troullier-Martins                       
Total valence charge:    4.00000

xc_check: Exchange-correlation functional:
xc_check: Ceperley-Alder
V l=0 = -2*Zval/r beyond r=  1.5227
V l=1 = -2*Zval/r beyond r=  1.5227
V l=2 = -2*Zval/r beyond r=  1.5227
V l=3 = -2*Zval/r beyond r=  1.5038
All V_l potentials equal beyond r=  1.5227
This should be close to max(r_c) in ps generation
All pots = -2*Zval/r beyond r=  1.5227

VLOCAL1: 99.0% of the norm of Vloc inside     18.722 Ry
VLOCAL1: 99.9% of the norm of Vloc inside     42.668 Ry
atom: Maximum radius for 4*pi*r*r*local-pseudopot. charge    1.83678
atom: Maximum radius for r*vlocal+2*Zval:    1.58088
GHOST: No ghost state for L =  0
GHOST: No ghost state for L =  1
GHOST: No ghost state for L =  2
GHOST: No ghost state for L =  3

KBgen: Kleinman-Bylander projectors: 
   l= 0   rc=  1.747182   el= -1.001948   Ekb=  4.950286   kbcos=  0.319819
   l= 1   rc=  1.747182   el= -0.398598   Ekb= -4.108613   kbcos= -0.367053
   l= 2   rc=  1.930978   el=  0.002326   Ekb= -1.042946   kbcos= -0.009366
   l= 3   rc=  2.055542   el=  0.003420   Ekb= -0.408633   kbcos= -0.001262

KBgen: Total number of  Kleinman-Bylander projectors:   16
atom: -------------------------------------------------------------------------

atom: SANKEY-TYPE ORBITALS:
atom: Selected multiple-zeta basis: split     

SPLIT: Orbitals with angular momentum L= 0

SPLIT: Basis orbitals for state 2s

SPLIT: PAO cut-off radius determined from an
SPLIT: energy shift=  0.020000 Ry

   izeta = 1
                 lambda =    1.000000
                     rc =    4.191849
                 energy =   -0.983897
                kinetic =    0.880927
    potential(screened) =   -1.864824
       potential(ionic) =   -5.475687

   izeta = 2
                 rmatch =    3.431921
              splitnorm =    0.150000
                 energy =   -0.853083
                kinetic =    1.298222
    potential(screened) =   -2.151305
       potential(ionic) =   -5.995890

SPLIT: Orbitals with angular momentum L= 1

SPLIT: Basis orbitals for state 2p

SPLIT: PAO cut-off radius determined from an
SPLIT: energy shift=  0.020000 Ry

   izeta = 1
                 lambda =    1.000000
                     rc =    4.870301
                 energy =   -0.379093
                kinetic =    2.540023
    potential(screened) =   -2.919116
       potential(ionic) =   -6.427960

   izeta = 2
                 rmatch =    3.475094
              splitnorm =    0.150000
                 energy =   -0.215057
                kinetic =    3.814571
    potential(screened) =   -4.029628
       potential(ionic) =   -7.920250

POLgen: Perturbative polarization orbital with L=  2

POLgen: Polarization orbital for state 2p

   izeta = 1
                     rc =    4.870301
                 energy =    1.280996
                kinetic =    2.631310
    potential(screened) =   -1.350314
       potential(ionic) =   -4.295640
atom: Total number of Sankey-type orbitals: 13

atm_pop: Valence configuration (for local Pseudopot. screening):
 2s( 2.00)                                                            
 2p( 2.00)                                                            
Vna: chval, zval:    4.00000   4.00000

Vna:  Cut-off radius for the neutral-atom potential:   4.870301

atom: _________________________________________________________________________

<basis_specs>
===============================================================================
H                    Z=   1    Mass=  1.0100        Charge= 0.17977+309
Lmxo=0 Lmxkb= 2    BasisType=split      Semic=F
L=0  Nsemic=0  Cnfigmx=1
          n=1  nzeta=2  polorb=1
            splnorm:   0.15000    
               vcte:    0.0000    
               rinn:    0.0000    
               qcoe:    0.0000    
               qyuk:    0.0000    
               qwid:   0.10000E-01
                rcs:    0.0000      0.0000    
            lambdas:    1.0000      1.0000    
-------------------------------------------------------------------------------
L=0  Nkbl=1  erefs: 0.17977+309
L=1  Nkbl=1  erefs: 0.17977+309
L=2  Nkbl=1  erefs: 0.17977+309
===============================================================================
</basis_specs>

atom: Called for H                     (Z =   1)

read_vps: Pseudopotential generation method:
read_vps: ATM3      Troullier-Martins                       
Total valence charge:    1.00000

xc_check: Exchange-correlation functional:
xc_check: Ceperley-Alder
V l=0 = -2*Zval/r beyond r=  1.2977
V l=1 = -2*Zval/r beyond r=  1.2815
V l=2 = -2*Zval/r beyond r=  1.1307
All V_l potentials equal beyond r=  1.2977
This should be close to max(r_c) in ps generation
All pots = -2*Zval/r beyond r=  1.2977

VLOCAL1: 99.0% of the norm of Vloc inside     25.776 Ry
VLOCAL1: 99.9% of the norm of Vloc inside     58.745 Ry
atom: Maximum radius for 4*pi*r*r*local-pseudopot. charge    1.52711
atom: Maximum radius for r*vlocal+2*Zval:    1.28155
GHOST: No ghost state for L =  0
GHOST: No ghost state for L =  1
GHOST: No ghost state for L =  2

KBgen: Kleinman-Bylander projectors: 
   l= 0   rc=  1.434438   el= -0.467325   Ekb= -1.940326   kbcos= -0.353040
   l= 1   rc=  1.508111   el=  0.001430   Ekb= -0.480826   kbcos= -0.024144
   l= 2   rc=  1.527112   el=  0.002365   Ekb= -0.479392   kbcos= -0.001656

KBgen: Total number of  Kleinman-Bylander projectors:    9
atom: -------------------------------------------------------------------------

atom: SANKEY-TYPE ORBITALS:
atom: Selected multiple-zeta basis: split     

SPLIT: Orbitals with angular momentum L= 0

SPLIT: Basis orbitals for state 1s

SPLIT: PAO cut-off radius determined from an
SPLIT: energy shift=  0.020000 Ry

   izeta = 1
                 lambda =    1.000000
                     rc =    4.828263
                 energy =   -0.449375
                kinetic =    0.925762
    potential(screened) =   -1.375137
       potential(ionic) =   -1.911235

   izeta = 2
                 rmatch =    3.854947
              splitnorm =    0.150000
                 energy =   -0.336149
                kinetic =    1.498089
    potential(screened) =   -1.834238
       potential(ionic) =   -2.406110

POLgen: Perturbative polarization orbital with L=  1

POLgen: Polarization orbital for state 1s

   izeta = 1
                     rc =    4.828263
                 energy =    0.707053
                kinetic =    1.398668
    potential(screened) =   -0.691614
       potential(ionic) =   -1.171973
atom: Total number of Sankey-type orbitals:  5

atm_pop: Valence configuration (for local Pseudopot. screening):
 1s( 1.00)                                                            
Vna: chval, zval:    1.00000   1.00000

Vna:  Cut-off radius for the neutral-atom potential:   4.828263

atom: _________________________________________________________________________

<basis_specs>
===============================================================================
N                    Z=   7    Mass=  14.010        Charge= 0.17977+309
Lmxo=1 Lmxkb= 3    BasisType=split      Semic=F
L=0  Nsemic=0  Cnfigmx=2
          n=1  nzeta=2  polorb=0
            splnorm:   0.15000    
               vcte:    0.0000    
               rinn:    0.0000    
               qcoe:    0.0000    
               qyuk:    0.0000    
               qwid:   0.10000E-01
                rcs:    0.0000      0.0000    
            lambdas:    1.0000      1.0000    
L=1  Nsemic=0  Cnfigmx=2
          n=1  nzeta=2  polorb=1
            splnorm:   0.15000    
               vcte:    0.0000    
               rinn:    0.0000    
               qcoe:    0.0000    
               qyuk:    0.0000    
               qwid:   0.10000E-01
                rcs:    0.0000      0.0000    
            lambdas:    1.0000      1.0000    
-------------------------------------------------------------------------------
L=0  Nkbl=1  erefs: 0.17977+309
L=1  Nkbl=1  erefs: 0.17977+309
L=2  Nkbl=1  erefs: 0.17977+309
L=3  Nkbl=1  erefs: 0.17977+309
===============================================================================
</basis_specs>

atom: Called for N                     (Z =   7)

read_vps: Pseudopotential generation method:
read_vps: ATM3      Troullier-Martins                       
Total valence charge:    5.00000

xc_check: Exchange-correlation functional:
xc_check: Ceperley-Alder
V l=0 = -2*Zval/r beyond r=  1.4606
V l=1 = -2*Zval/r beyond r=  1.4606
V l=2 = -2*Zval/r beyond r=  1.4606
V l=3 = -2*Zval/r beyond r=  1.4606
All V_l potentials equal beyond r=  1.4606
This should be close to max(r_c) in ps generation
All pots = -2*Zval/r beyond r=  1.4606

VLOCAL1: 99.0% of the norm of Vloc inside     20.347 Ry
VLOCAL1: 99.9% of the norm of Vloc inside     46.372 Ry
atom: Maximum radius for 4*pi*r*r*local-pseudopot. charge    1.76189
atom: Maximum radius for r*vlocal+2*Zval:    1.53550
GHOST: No ghost state for L =  0
GHOST: No ghost state for L =  1
GHOST: No ghost state for L =  2
GHOST: No ghost state for L =  3

KBgen: Kleinman-Bylander projectors: 
   l= 0   rc=  1.634559   el= -1.352239   Ekb=  4.901185   kbcos=  0.337501
   l= 1   rc=  1.614250   el= -0.532623   Ekb= -5.544141   kbcos= -0.433040
   l= 2   rc=  1.740002   el=  0.002346   Ekb= -1.331777   kbcos= -0.007563
   l= 3   rc=  1.806505   el=  0.003449   Ekb= -0.515466   kbcos= -0.000994

KBgen: Total number of  Kleinman-Bylander projectors:   16
atom: -------------------------------------------------------------------------

atom: SANKEY-TYPE ORBITALS:
atom: Selected multiple-zeta basis: split     

SPLIT: Orbitals with angular momentum L= 0

SPLIT: Basis orbitals for state 2s

SPLIT: PAO cut-off radius determined from an
SPLIT: energy shift=  0.020000 Ry

   izeta = 1
                 lambda =    1.000000
                     rc =    3.683980
                 energy =   -1.333780
                kinetic =    1.203249
    potential(screened) =   -2.537029
       potential(ionic) =   -8.126274

   izeta = 2
                 rmatch =    2.905100
              splitnorm =    0.150000
                 energy =   -1.138702
                kinetic =    1.810192
    potential(screened) =   -2.948894
       potential(ionic) =   -8.945013

SPLIT: Orbitals with angular momentum L= 1

SPLIT: Basis orbitals for state 2p

SPLIT: PAO cut-off radius determined from an
SPLIT: energy shift=  0.020000 Ry

   izeta = 1
                 lambda =    1.000000
                     rc =    4.280232
                 energy =   -0.512466
                kinetic =    3.598849
    potential(screened) =   -4.111315
       potential(ionic) =   -9.550563

   izeta = 2
                 rmatch =    2.941647
              splitnorm =    0.150000
                 energy =   -0.292244
                kinetic =    5.357522
    potential(screened) =   -5.649767
       potential(ionic) =  -11.693436

POLgen: Perturbative polarization orbital with L=  2

POLgen: Polarization orbital for state 2p

   izeta = 1
                     rc =    4.280232
                 energy =    1.826084
                kinetic =    3.687342
    potential(screened) =   -1.861257
       potential(ionic) =   -6.363951
atom: Total number of Sankey-type orbitals: 13

atm_pop: Valence configuration (for local Pseudopot. screening):
 2s( 2.00)                                                            
 2p( 3.00)                                                            
Vna: chval, zval:    5.00000   5.00000

Vna:  Cut-off radius for the neutral-atom potential:   4.280232

atom: _________________________________________________________________________

<basis_specs>
===============================================================================
O                    Z=   8    Mass=  16.000        Charge= 0.17977+309
Lmxo=1 Lmxkb= 3    BasisType=split      Semic=F
L=0  Nsemic=0  Cnfigmx=2
          n=1  nzeta=2  polorb=0
            splnorm:   0.15000    
               vcte:    0.0000    
               rinn:    0.0000    
               qcoe:    0.0000    
               qyuk:    0.0000    
               qwid:   0.10000E-01
                rcs:    0.0000      0.0000    
            lambdas:    1.0000      1.0000    
L=1  Nsemic=0  Cnfigmx=2
          n=1  nzeta=2  polorb=1
            splnorm:   0.15000    
               vcte:    0.0000    
               rinn:    0.0000    
               qcoe:    0.0000    
               qyuk:    0.0000    
               qwid:   0.10000E-01
                rcs:    0.0000      0.0000    
            lambdas:    1.0000      1.0000    
-------------------------------------------------------------------------------
L=0  Nkbl=1  erefs: 0.17977+309
L=1  Nkbl=1  erefs: 0.17977+309
L=2  Nkbl=1  erefs: 0.17977+309
L=3  Nkbl=1  erefs: 0.17977+309
===============================================================================
</basis_specs>

atom: Called for O                     (Z =   8)

read_vps: Pseudopotential generation method:
read_vps: ATM3      Troullier-Martins                       
Total valence charge:    6.00000

xc_check: Exchange-correlation functional:
xc_check: Ceperley-Alder
V l=0 = -2*Zval/r beyond r=  1.4482
V l=1 = -2*Zval/r beyond r=  1.4482
V l=2 = -2*Zval/r beyond r=  1.4482
V l=3 = -2*Zval/r beyond r=  1.4482
All V_l potentials equal beyond r=  1.4482
This should be close to max(r_c) in ps generation
All pots = -2*Zval/r beyond r=  1.4482

VLOCAL1: 99.0% of the norm of Vloc inside     20.696 Ry
VLOCAL1: 99.9% of the norm of Vloc inside     47.167 Ry
atom: Maximum radius for 4*pi*r*r*local-pseudopot. charge    1.74697
atom: Maximum radius for r*vlocal+2*Zval:    1.52250
GHOST: No ghost state for L =  0
GHOST: No ghost state for L =  1
GHOST: No ghost state for L =  2
GHOST: No ghost state for L =  3

KBgen: Kleinman-Bylander projectors: 
   l= 0   rc=  1.620715   el= -1.742414   Ekb=  4.456556   kbcos=  0.290194
   l= 1   rc=  1.600578   el= -0.676589   Ekb= -7.144994   kbcos= -0.499132
   l= 2   rc=  1.703827   el=  0.002386   Ekb= -1.602359   kbcos= -0.006666
   l= 3   rc=  1.746967   el=  0.003508   Ekb= -0.610601   kbcos= -0.000909

KBgen: Total number of  Kleinman-Bylander projectors:   16
atom: -------------------------------------------------------------------------

atom: SANKEY-TYPE ORBITALS:
atom: Selected multiple-zeta basis: split     

SPLIT: Orbitals with angular momentum L= 0

SPLIT: Basis orbitals for state 2s

SPLIT: PAO cut-off radius determined from an
SPLIT: energy shift=  0.020000 Ry

   izeta = 1
                 lambda =    1.000000
                     rc =    3.305093
                 energy =   -1.723753
                kinetic =    1.583904
    potential(screened) =   -3.307656
       potential(ionic) =  -11.288993

   izeta = 2
                 rmatch =    2.510382
              splitnorm =    0.150000
                 energy =   -1.476627
                kinetic =    2.379421
    potential(screened) =   -3.856049
       potential(ionic) =  -12.446732

SPLIT: Orbitals with angular momentum L= 1

SPLIT: Basis orbitals for state 2p

SPLIT: PAO cut-off radius determined from an
SPLIT: energy shift=  0.020000 Ry

   izeta = 1
                 lambda =    1.000000
                     rc =    3.937239
                 energy =   -0.658849
                kinetic =    4.693978
    potential(screened) =   -5.352826
       potential(ionic) =  -13.082398

   izeta = 2
                 rmatch =    2.541963
              splitnorm =    0.150000
                 energy =   -0.363305
                kinetic =    7.018769
    potential(screened) =   -7.382074
       potential(ionic) =  -16.005408

POLgen: Perturbative polarization orbital with L=  2

POLgen: Polarization orbital for state 2p

   izeta = 1
                     rc =    3.937239
                 energy =    2.394514
                kinetic =    4.808418
    potential(screened) =   -2.413904
       potential(ionic) =   -8.736781
atom: Total number of Sankey-type orbitals: 13

atm_pop: Valence configuration (for local Pseudopot. screening):
 2s( 2.00)                                                            
 2p( 4.00)                                                            
Vna: chval, zval:    6.00000   6.00000

Vna:  Cut-off radius for the neutral-atom potential:   3.937239

atom: _________________________________________________________________________

prinput: Basis input ----------------------------------------------------------

PAO.BasisType split     

%block ChemicalSpeciesLabel
    1   79 Au                      # Species index, atomic number, species label
    2    6 C                       # Species index, atomic number, species label
    3    1 H                       # Species index, atomic number, species label
    4    7 N                       # Species index, atomic number, species label
    5    8 O                       # Species index, atomic number, species label
%endblock ChemicalSpeciesLabel

%block PAO.Basis                 # Define Basis set
Au                    2                    # Species label, number of l-shells
 n=6   0   1                         # n, l, Nzeta 
   6.723   
   1.000   
 n=5   2   1                         # n, l, Nzeta 
   4.181   
   1.000   
C                     2                    # Species label, number of l-shells
 n=2   0   2                         # n, l, Nzeta 
   4.192      3.432   
   1.000      1.000   
 n=2   1   2 P   1                   # n, l, Nzeta, Polarization, NzetaPol
   4.870      3.475   
   1.000      1.000   
H                     1                    # Species label, number of l-shells
 n=1   0   2 P   1                   # n, l, Nzeta, Polarization, NzetaPol
   4.828      3.855   
   1.000      1.000   
N                     2                    # Species label, number of l-shells
 n=2   0   2                         # n, l, Nzeta 
   3.684      2.905   
   1.000      1.000   
 n=2   1   2 P   1                   # n, l, Nzeta, Polarization, NzetaPol
   4.280      2.942   
   1.000      1.000   
O                     2                    # Species label, number of l-shells
 n=2   0   2                         # n, l, Nzeta 
   3.305      2.510   
   1.000      1.000   
 n=2   1   2 P   1                   # n, l, Nzeta, Polarization, NzetaPol
   3.937      2.542   
   1.000      1.000   
%endblock PAO.Basis

prinput: ----------------------------------------------------------------------

coor:   Atomic-coordinates input format  =     Cartesian coordinates
coor:                                          (in units of alat)

siesta: WARNING: XV file not found

siesta: Atomic coordinates (Bohr) and species
siesta:      2.71925   2.71925   0.00000  1        1
siesta:      2.71925   8.15774   0.00000  1        2
siesta:      8.15774   2.71925   0.00000  1        3
siesta:      8.15774   8.15774   0.00000  1        4
siesta:      0.00000   5.43849   3.84559  1        5
siesta:      5.43849   0.00000   3.84559  1        6
siesta:      5.43849   5.43849   3.84559  1        7
siesta:      5.43849  10.87698   3.84559  1        8
siesta:     10.87698   5.43849   3.84559  1        9
siesta:      2.71925   2.71925   7.69119  1       10
siesta:      2.71925   8.15774   7.69119  1       11
siesta:      8.15774   2.71925   7.69119  1       12
siesta:      8.15774   8.15774   7.69119  1       13
siesta:      0.00000   5.43849  11.53678  1       14
siesta:      5.43849   0.00000  11.53678  1       15
siesta:      5.43849   5.43849  11.53678  1       16
siesta:      5.43849  10.87698  11.53678  1       17
siesta:     10.87698   5.43849  11.53678  1       18
siesta:      2.71925   2.71925  15.38238  1       19
siesta:      2.71925   8.15774  15.38238  1       20
siesta:      8.15774   2.71925  15.38238  1       21
siesta:      8.15774   8.15774  15.38238  1       22
siesta:      0.00000   5.43849  19.22797  1       23
siesta:      5.43849   0.00000  19.22797  1       24
siesta:      5.43849   5.43849  19.22797  1       25
siesta:      5.43849  10.87698  19.22797  1       26
siesta:     10.87698   5.43849  19.22797  1       27
siesta:      2.71925   2.71925  23.07357  1       28
siesta:      2.71925   8.15774  23.07357  1       29
siesta:      8.15774   2.71925  23.07357  1       30
siesta:      8.15774   8.15774  23.07357  1       31
siesta:      0.00000   5.43849  26.91916  1       32
siesta:      5.43849   0.00000  26.91916  1       33
siesta:      5.43849   5.43849  26.91916  1       34
siesta:      5.43849  10.87698  26.91916  1       35
siesta:     10.87698   5.43849  26.91916  1       36
siesta:      2.71925   2.71925  30.76475  1       37
siesta:      2.71925   8.15774  30.76475  1       38
siesta:      8.15774   2.71925  30.76475  1       39
siesta:      8.15774   8.15774  30.76475  1       40
siesta:      0.00000   5.43849  34.61035  1       41
siesta:      5.43849   0.00000  34.61035  1       42
siesta:      5.43849   5.43849  34.61035  1       43
siesta:      5.43849  10.87698  34.61035  1       44
siesta:     10.87698   5.43849  34.61035  1       45
siesta:      2.71925   2.71925  38.45594  1       46
siesta:      2.71925   8.15774  38.45594  1       47
siesta:      8.15774   2.71925  38.45594  1       48
siesta:      8.15774   8.15774  38.45594  1       49
siesta:      0.00000   5.43849  42.30154  1       50
siesta:      5.43849   0.00000  42.30154  1       51
siesta:      5.43849   5.43849  42.30154  1       52
siesta:      5.43849  10.87698  42.30154  1       53
siesta:     10.87698   5.43849  42.30154  1       54
siesta:      2.71925   2.71925  46.14713  1       55
siesta:      2.71925   8.15774  46.14713  1       56
siesta:      8.15774   2.71925  46.14713  1       57
siesta:      8.15774   8.15774  46.14713  1       58
siesta:      5.43849   5.43849  49.99272  1       59
siesta:      5.52335   3.10618  58.73381  4       60
siesta:      5.43849   5.43849  55.43121  1       61
siesta:      6.70332   4.13192  61.00732  2       62
siesta:      8.43909   3.07867  61.41169  3       63
siesta:      5.06541   3.76421  63.36980  2       64
siesta:      6.09182   3.62460  65.47821  5       65
siesta:      7.33859   6.93596  60.64219  2       66
siesta:      8.21279   7.67840  62.35959  3       67
siesta:      8.67475   7.16598  59.08046  3       68
siesta:      5.63755   8.04138  60.23521  3       69
siesta:      2.54926   3.63694  63.03810  4       70
siesta:      1.87562   3.74669  61.24856  3       71
siesta:      0.77462   3.21269  65.10555  2       72
siesta:      1.02539   4.69670  66.52340  3       73
siesta:      1.26037   0.72245  66.52922  2       74
siesta:      0.56332   0.50391  68.74968  5       75
siesta:     -1.94675   3.29847  64.11491  2       76
siesta:     -3.25942   2.99732  65.67998  3       77
siesta:     -2.34400   5.14425  63.27162  3       78
siesta:     -2.27042   1.82897  62.69415  3       79
siesta:      2.43128  -1.16746  65.26619  4       80
siesta:      3.09221  -0.89469  63.47559  3       81
siesta:      3.04129  -3.53616  66.53384  2       82
siesta:      1.32042  -4.27162  67.41608  3       83
siesta:      4.89290  -3.17366  68.74898  2       84
siesta:      5.03051  -4.80288  70.43850  5       85
siesta:      4.06285  -5.47560  64.63816  2       86
siesta:      4.54802  -7.22468  65.62315  3       87
siesta:      2.62589  -5.89951  63.21392  3       88
siesta:      5.74741  -4.76048  63.67692  3       89
siesta:      6.34353  -1.09043  68.72167  4       90
siesta:      6.14885   0.13687  67.25346  3       91
siesta:      7.91295  -0.29054  70.84672  2       92
siesta:      8.04513  -1.89163  72.13469  3       93
siesta:      6.66244   1.86113  72.37866  2       94
siesta:      6.53232   1.74457  74.71072  5       95
siesta:     10.55599   0.49267  69.94051  2       96
siesta:     11.68552   1.17921  71.53126  3       97
siesta:     11.51949  -1.13176  69.09966  3       98
siesta:     10.44053   1.99494  68.52190  3       99
siesta:      5.84079   3.89725  71.06127  4      100
siesta:      5.94946   3.91642  69.13920  3      101
siesta:      5.18362   6.25596  72.33329  2      102
siesta:      6.63333   6.63996  73.75997  3      103
siesta:      2.71075   6.17889  73.85728  2      104
siesta:      2.36246   7.76685  75.52642  5      105
siesta:      5.12908   8.44549  70.43526  2      106
siesta:      4.68577  10.19959  71.43013  3      107
siesta:      6.97152   8.65117  69.51945  3      108
siesta:      3.69601   8.14468  68.97302  3      109
siesta:      1.00784   4.35000  73.28380  4      110
siesta:      1.32282   3.14467  71.81629  3      111
siesta:     -1.32594   4.08787  74.71995  2      112
siesta:     -1.85052   5.97908  75.37406  3      113
siesta:     -1.03526   2.51105  77.16130  2      114
siesta:     -2.88256   2.18454  78.54576  5      115
siesta:     -3.45830   3.01598  73.07951  2      116
siesta:     -5.15750   2.79447  74.22904  3      117
siesta:     -3.86743   4.30344  71.51434  3      118
siesta:     -2.93913   1.17791  72.28772  3      119
siesta:      1.28571   1.54698  77.65517  4      120
siesta:      2.74926   1.91802  76.46599  3      121
siesta:      1.80071   0.00272  79.86060  2      122
siesta:     -0.04105  -0.38011  80.73368  3      123
siesta:      3.34061   1.38165  81.88728  2      124
siesta:      3.31637   3.90988  81.62019  5      125
siesta:      3.07676  -2.50446  79.10968  2      126
siesta:      4.78344  -2.05309  78.01876  3      127
siesta:      3.69090  -3.47640  80.82722  3      128
siesta:      1.32027  -4.19048  77.53618  2      129
siesta:     -0.13138  -5.03069  78.75773  3      130
siesta:      0.32412  -3.01455  76.14902  3      131
siesta:      2.76173  -6.25095  76.09422  2      132
siesta:      4.24155  -5.34283  74.96572  3      133
siesta:      3.69658  -7.55939  77.40298  3      134
siesta:      1.01648  -7.71134  74.31539  2      135
siesta:     -0.07712  -9.16936  75.28054  3      136
siesta:     -0.28759  -6.44460  73.33821  3      137
siesta:      2.52449  -8.98366  72.25926  4      138
siesta:      1.38810  -9.99119  71.05989  3      139
siesta:      3.48410  -7.59412  71.21593  3      140
siesta:      3.82876 -10.21700  72.98435  3      141
siesta:      4.42319   0.31601  83.60888  5      142
siesta:      5.17202   1.23458  58.55562  3      143
siesta:      5.43849   5.43849  84.70467  1      144
siesta:      5.43849   5.43849  90.14315  1      145
siesta:      8.15774   8.15774  93.98875  1      146
siesta:      8.15774   2.71925  93.98875  1      147
siesta:      2.71925   8.15774  93.98875  1      148
siesta:      2.71925   2.71925  93.98875  1      149
siesta:     10.87698   5.43849  97.83434  1      150
siesta:      5.43849  10.87698  97.83434  1      151
siesta:      5.43849   5.43849  97.83434  1      152
siesta:      5.43849   0.00000  97.83434  1      153
siesta:      0.00000   5.43849  97.83434  1      154
siesta:      8.15774   8.15774 101.67994  1      155
siesta:      8.15774   2.71925 101.67994  1      156
siesta:      2.71925   8.15774 101.67994  1      157
siesta:      2.71925   2.71925 101.67994  1      158
siesta:     10.87698   5.43849 105.52553  1      159
siesta:      5.43849  10.87698 105.52553  1      160
siesta:      5.43849   5.43849 105.52553  1      161
siesta:      5.43849   0.00000 105.52553  1      162
siesta:      0.00000   5.43849 105.52553  1      163
siesta:      8.15774   8.15774 109.37112  1      164
siesta:      8.15774   2.71925 109.37112  1      165
siesta:      2.71925   8.15774 109.37112  1      166
siesta:      2.71925   2.71925 109.37112  1      167
siesta:     10.87698   5.43849 113.21672  1      168
siesta:      5.43849  10.87698 113.21672  1      169
siesta:      5.43849   5.43849 113.21672  1      170
siesta:      5.43849   0.00000 113.21672  1      171
siesta:      0.00000   5.43849 113.21672  1      172
siesta:      8.15774   8.15774 117.06231  1      173
siesta:      8.15774   2.71925 117.06231  1      174
siesta:      2.71925   8.15774 117.06231  1      175
siesta:      2.71925   2.71925 117.06231  1      176
siesta:     10.87698   5.43849 120.90791  1      177
siesta:      5.43849  10.87698 120.90791  1      178
siesta:      5.43849   5.43849 120.90791  1      179
siesta:      5.43849   0.00000 120.90791  1      180
siesta:      0.00000   5.43849 120.90791  1      181
siesta:      8.15774   8.15774 124.75350  1      182
siesta:      8.15774   2.71925 124.75350  1      183
siesta:      2.71925   8.15774 124.75350  1      184
siesta:      2.71925   2.71925 124.75350  1      185
siesta:     10.87698   5.43849 128.59909  1      186
siesta:      5.43849  10.87698 128.59909  1      187
siesta:      5.43849   5.43849 128.59909  1      188
siesta:      5.43849   0.00000 128.59909  1      189
siesta:      0.00000   5.43849 128.59909  1      190
siesta:      8.15774   8.15774 132.44469  1      191
siesta:      8.15774   2.71925 132.44469  1      192
siesta:      2.71925   8.15774 132.44469  1      193
siesta:      2.71925   2.71925 132.44469  1      194
siesta:     10.87698   5.43849 136.29028  1      195
siesta:      5.43849  10.87698 136.29028  1      196
siesta:      5.43849   5.43849 136.29028  1      197
siesta:      5.43849   0.00000 136.29028  1      198
siesta:      0.00000   5.43849 136.29028  1      199
siesta:      8.15774   8.15774 140.13588  1      200
siesta:      8.15774   2.71925 140.13588  1      201
siesta:      2.71925   8.15774 140.13588  1      202
siesta:      2.71925   2.71925 140.13588  1      203

siesta: System type = chain     

initatomlists: Number of atoms, orbitals, and projectors:    203  1455  2107

coxmol: Writing XMOL coordinates into file em.xyz                                                              

siesta: ******************** Simulation parameters ****************************
siesta:
siesta: The following are some of the parameters of the simulation.
siesta: A complete list of the parameters used, including default values,
siesta: can be found in file out.fdf
siesta:
redata: Spin configuration                          = collinear
redata: Number of spin components                   = 2
redata: Time-Reversal Symmetry                      = T
redata: Spin-spiral                                 = F
redata: Long output                                 =   F
redata: Number of Atomic Species                    =        5
redata: Charge density info will appear in .RHO file
redata: Write Mulliken Pop.                         = Atomic and Orbital charges
redata: Mesh Cutoff                                 =   350.0000 Ry
redata: Net charge of the system                    =     1.0000 |e|
redata: Min. number of SCF Iter                     =        0
redata: Max. number of SCF Iter                     =      300
redata: SCF mix quantity                            = Hamiltonian
redata: Mix DM or H after convergence               =   F
redata: Recompute H after scf cycle                 =   F
redata: Mix DM in first SCF step                    =   T
redata: Write Pulay info on disk                    =   F
redata: New DM Mixing Weight                        =     0.0300
redata: New DM Occupancy tolerance                  = 0.000000000001
redata: No kicks to SCF
redata: DM Mixing Weight for Kicks                  =     0.5000
redata: Require Harris convergence for SCF          =   F
redata: Harris energy tolerance for SCF             =     0.000100 eV
redata: Require DM convergence for SCF              =   T
redata: DM tolerance for SCF                        =     0.0001
redata: Require EDM convergence for SCF             =   F
redata: EDM tolerance for SCF                       =     0.001000 eV
redata: Require H convergence for SCF               =   T
redata: Hamiltonian tolerance for SCF               =     0.001000 eV
redata: Require (free) Energy convergence for SCF   =   F
redata: (free) Energy tolerance for SCF             =     0.000100 eV
redata: Antiferro initial spin density              =   F
redata: Using Saved Data (generic)                  =   F
redata: Use continuation files for DM               =   T
redata: Neglect nonoverlap interactions             =   F
redata: Method of Calculation                       = Diagonalization
redata: Divide and Conquer                          =   F
redata: Electronic Temperature                      =   299.9869 K
redata: Fix the spin of the system                  =   F
redata: Dynamics option                             = Single-point calculation
mix.SCF: Pulay mixing                            = Pulay
mix.SCF:    Variant                              = stable
mix.SCF:    History steps                        = 5
mix.SCF:    Linear mixing weight                 =     0.030000
mix.SCF:    Mixing weight                        =     0.030000
mix.SCF:    SVD condition                        = 0.1000E-07
mix.SCF: Spin-component mixing                   all
redata: ***********************************************************************

%block SCF.Mixers
  Pulay
%endblock SCF.Mixers

%block SCF.Mixer.Pulay
  # Mixing method
  method pulay
  variant stable

  # Mixing options
  weight 0.0300
  weight.linear 0.0300
  history 5
%endblock SCF.Mixer.Pulay

DM_history_depth set to one: no extrapolation allowed by default for geometry relaxation
Size of DM history Fstack: 1
Total number of electrons:  1546.000000
Total ionic charge:  1547.000000
madelung: WARNING: Charged system, but not an atom or molecule.
madelung: WARNING: Energy correction terms can not be applied. 
madelung: WARNING: Continue only if you really know what you are doing.
 Kpoints in:           18 . Kpoints trimmed:           14

siesta: k-grid: Number of k-points =    14
siesta: k-grid: Cutoff (effective) =    45.000 Ang
siesta: k-grid: Supercell and displacements
siesta: k-grid:    3   0   0      0.000
siesta: k-grid:    0   3   0      0.000
siesta: k-grid:    0   0   3      0.000

superc: Internal auxiliary supercell:     1 x     1 x     3  =       3
superc: Number of atoms, orbitals, and projectors:    609   4365   6321


                     ====================================
                        Single-point calculation
                     ====================================

superc: Internal auxiliary supercell:     1 x     1 x     3  =       3
superc: Number of atoms, orbitals, and projectors:    609   4365   6321

outcell: Unit cell vectors (Ang):
       30.000000    0.000000    0.000000
        0.000000   30.000000    0.000000
        0.000000    0.000000   80.471707

outcell: Cell vector modules (Ang)   :   30.000000   30.000000   80.471707
outcell: Cell angles (23,13,12) (deg):     90.0000     90.0000     90.0000
outcell: Cell volume (Ang**3)        :  72424.5362
<dSpData1D:S at geom step 0
  <sparsity:sparsity for geom step 0
    nrows_g=1455 nrows=1455 sparsity=.1542 nnzs=326515, refcount: 7>
  <dData1D:(new from dSpData1D) n=326515, refcount: 1>
refcount: 1>
new_DM -- step:     1
Initializing Density Matrix...

Attempting to read DM from file... Failed...
DM filled with atomic data:
<dSpData2D:DM initialized from atoms
  <sparsity:sparsity for geom step 0
    nrows_g=1455 nrows=1455 sparsity=.1542 nnzs=326515, refcount: 8>
  <dData2D:DM n=326515 m=2, refcount: 1>
refcount: 1>

initDM: Initial spin polarization (Qup-Qdown) =  251.000000

No. of atoms with KB's overlaping orbs in proc 0. Max # of overlaps:     203     176
New grid distribution:   1
           1       1:  180    1:  180    1:  480

InitMesh: MESH =   360 x   360 x   960 =   124416000
InitMesh: (bp) =   180 x   180 x   480 =    15552000
InitMesh: Mesh cutoff (required, used) =   350.000   393.331 Ry
ExtMesh (bp) on 0 =   268 x   268 x   568 =    40796032
PhiOnMesh: Number of (b)points on node 0 =             15552000
PhiOnMesh: nlist on node 0 =             20223975

stepf: Fermi-Dirac step function

siesta: Program's energy decomposition (eV):
siesta: Ebs     =    -14569.945778
siesta: Eions   =    131538.831527
siesta: Ena     =      3372.542093
siesta: Ekin    =     88735.137631
siesta: Enl     =    -59026.879957
siesta: Eso     =         0.000000
siesta: Eldau   =         0.000000
siesta: DEna    =      -337.638024
siesta: DUscf   =       247.332626
siesta: DUext   =         0.000000
siesta: Exc     =    -20252.216665
siesta: eta*DQ  =         0.000000
siesta: Emadel  =         0.000000
siesta: Emeta   =         0.000000
siesta: Emolmec =         0.000000
siesta: Ekinion =         0.000000
siesta: Eharris =   -118461.618655
siesta: Etot    =   -118800.553823
siesta: FreeEng =   -118800.687764

        iscf     Eharris(eV)        E_KS(eV)     FreeEng(eV)     dDmax    Ef(eV) dHmax(eV)
   scf:    1  -118461.618655  -118800.553823  -118800.687764  0.979045 -1.552048 40.722677
timer: Routine,Calls,Time,% = IterSCF        1     445.879  90.05
   scf:    2   -21768.976633   -87621.148730   -87621.157592  1.783831 14.198218542.448501
   scf:    3  -120537.157211  -118945.685516  -118945.763109  1.770275 -1.722638 13.271766
   scf:    4  -118966.538164  -118956.903291  -118956.982192  0.127027 -1.734172 12.157278
   scf:    5  -118939.372267  -118948.446977  -118948.519008  0.035763 -1.721072 13.974273
   scf:    6  -118994.521284  -118977.220017  -118977.327970  0.158698 -1.761051  8.057690
   scf:    7  -118968.571437  -118976.773542  -118976.855122  0.484597 -1.829472 13.859157
   scf:    8  -118995.262231  -118988.343764  -118988.454840  0.217007 -1.849512  6.961723
   scf:    9  -118994.087076  -118992.100213  -118992.218110  0.265706 -1.916243  4.684063
   scf:   10  -118976.461688  -118987.314880  -118987.490706  0.509325 -1.989078 14.486210
   scf:   11  -118994.156316  -118993.555288  -118993.703531  0.542487 -1.971293  3.538394
   scf:   12  -118991.743174  -118993.658242  -118993.819334  0.148395 -2.021118  2.741191
   scf:   13  -118994.972500  -118994.672460  -118994.831609  0.036822 -2.034909  2.008719
   scf:   14  -118995.128806  -118994.932593  -118995.077511  0.029709 -2.050014  1.707746
   scf:   15  -118995.604630  -118995.386450  -118995.539937  0.025532 -2.051689  1.783688
   scf:   16  -118995.606731  -118995.513794  -118995.665813  0.006752 -2.043288  1.547841
   scf:   17  -118995.585654  -118995.566659  -118995.729264  0.012880 -2.042266  1.557788
   scf:   18  -118995.706861  -118995.648449  -118995.823756  0.011498 -2.045771  1.165195
   scf:   19  -118995.746396  -118995.729170  -118995.935114  0.023443 -2.057853  0.690062
   scf:   20  -118995.765805  -118995.758554  -118995.969551  0.007442 -2.058410  0.656602
   scf:   21  -118995.779646  -118995.780728  -118995.997213  0.008324 -2.063240  0.384044
   scf:   22  -118995.796749  -118995.797861  -118996.020971  0.012857 -2.062144  0.307399
   scf:   23  -118995.804986  -118995.801733  -118996.032371  0.005466 -2.061987  0.286096
   scf:   24  -118995.806342  -118995.804112  -118996.050613  0.012130 -2.061397  0.193350
   scf:   25  -118995.810616  -118995.807767  -118996.058342  0.005025 -2.061959  0.169753
   scf:   26  -118995.813382  -118995.811053  -118996.065042  0.005016 -2.062744  0.131785
   scf:   27  -118995.813825  -118995.812928  -118996.069837  0.004501 -2.063640  0.111256
   scf:   28  -118995.810714  -118995.812228  -118996.072605  0.003808 -2.064235  0.093514
   scf:   29  -118995.809809  -118995.811463  -118996.075927  0.004719 -2.064359  0.082896
   scf:   30  -118995.811207  -118995.811383  -118996.077579  0.002421 -2.064310  0.064401
   scf:   31  -118995.811295  -118995.811367  -118996.079260  0.003011 -2.064260  0.051843
   scf:   32  -118995.811196  -118995.811307  -118996.080106  0.001770 -2.064327  0.046979
   scf:   33  -118995.810980  -118995.811148  -118996.080727  0.001402 -2.064498  0.038164
   scf:   34  -118995.810874  -118995.811013  -118996.081182  0.001069 -2.064686  0.031832
   scf:   35  -118995.810635  -118995.810863  -118996.081732  0.001629 -2.064827  0.025131
   scf:   36  -118995.810606  -118995.810740  -118996.082211  0.001538 -2.064847  0.021874
   scf:   37  -118995.810512  -118995.810622  -118996.082549  0.001155 -2.064842  0.020605
   scf:   38  -118995.810377  -118995.810501  -118996.082823  0.001193 -2.064872  0.017095
   scf:   39  -118995.810242  -118995.810370  -118996.083037  0.000936 -2.064936  0.014376
   scf:   40  -118995.810179  -118995.810272  -118996.083186  0.000713 -2.064986  0.011607
   scf:   41  -118995.810072  -118995.810170  -118996.083364  0.001025 -2.065041  0.009498
   scf:   42  -118995.810105  -118995.810136  -118996.083473  0.000699 -2.065056  0.008444
   scf:   43  -118995.810104  -118995.810116  -118996.083588  0.000883 -2.065073  0.006677
   scf:   44  -118995.810109  -118995.810109  -118996.083712  0.001136 -2.065101  0.005627
   scf:   45  -118995.810084  -118995.810093  -118996.083795  0.000958 -2.065141  0.004147
   scf:   46  -118995.810090  -118995.810091  -118996.083826  0.000400 -2.065157  0.003834
   scf:   47  -118995.810089  -118995.810089  -118996.083857  0.000462 -2.065173  0.003573
   scf:   48  -118995.810099  -118995.810093  -118996.083884  0.000464 -2.065179  0.003116
   scf:   49  -118995.810109  -118995.810097  -118996.083923  0.000901 -2.065191  0.002440
   scf:   50  -118995.810112  -118995.810101  -118996.083945  0.000884 -2.065201  0.001841
   scf:   51  -118995.810103  -118995.810102  -118996.083951  0.000340 -2.065207  0.001819
   scf:   52  -118995.810107  -118995.810104  -118996.083953  0.000241 -2.065208  0.002150
   scf:   53  -118995.810111  -118995.810107  -118996.083954  0.000150 -2.065207  0.002212
   scf:   54  -118995.810143  -118995.810124  -118996.083955  0.000548 -2.065190  0.002365
   scf:   55  -118995.810137  -118995.810130  -118996.083955  0.000221 -2.065181  0.002456
   scf:   56  -118995.810139  -118995.810135  -118996.083954  0.000187 -2.065169  0.002408
   scf:   57  -118995.810139  -118995.810137  -118996.083954  0.000152 -2.065157  0.002200
   scf:   58  -118995.810140  -118995.810138  -118996.083954  0.000085 -2.065149  0.002104
   scf:   59  -118995.810137  -118995.810138  -118996.083954  0.000022 -2.065145  0.001996
   scf:   60  -118995.810135  -118995.810136  -118996.083954  0.000018 -2.065141  0.001902
   scf:   61  -118995.810131  -118995.810134  -118996.083954  0.000029 -2.065132  0.001731
   scf:   62  -118995.810131  -118995.810132  -118996.083955  0.000024 -2.065127  0.001576
   scf:   63  -118995.810131  -118995.810132  -118996.083956  0.000040 -2.065122  0.001380
   scf:   64  -118995.810129  -118995.810130  -118996.083956  0.000051 -2.065119  0.001164
   scf:   65  -118995.810123  -118995.810127  -118996.083957  0.000094 -2.065113  0.000756

SCF Convergence by DM+H criterion
max |DM_out - DM_in|         :     0.0000941143
max |H_out - H_in|      (eV) :     0.0007564747
SCF cycle converged after 65 iterations

Using DM_out to compute the final energy and forces
No. of atoms with KB's overlaping orbs in proc 0. Max # of overlaps:     203     176

siesta: E_KS(eV) =          -118995.8101

siesta: E_KS - E_eggbox =   -118995.8101

siesta: Total spin polarization (Qup-Qdown) =   -0.032510

siesta: Atomic forces (eV/Ang):
----------------------------------------
   Tot   -0.016546    0.045164   -0.015253
----------------------------------------
   Max    4.124035
   Res    0.688951    sqrt( Sum f_i^2 / 3N )
----------------------------------------
   Max    4.124035    constrained

Stress-tensor-Voigt (kbar):       -3.03       -2.88       -2.78        0.05        0.11       -0.04
(Free)E + p*V (eV/cell)  -118865.2182
Target enthalpy (eV/cell)  -118996.0840

mulliken: Atomic and Orbital Populations:

mulliken: Spin UP 

Species: Au                  
Atom  Qatom  Qorb
               6s      5dxy    5dyz    5dz2    5dxz    5dx2-y2 
   1  5.499   0.565   0.989   0.985   0.993   0.985   0.982
   2  5.499   0.566   0.989   0.985   0.993   0.985   0.982
   3  5.499   0.565   0.989   0.985   0.993   0.985   0.982
   4  5.499   0.566   0.989   0.985   0.993   0.985   0.982
   5  5.514   0.588   0.992   0.967   0.991   0.992   0.985
   6  5.514   0.588   0.992   0.992   0.991   0.967   0.985
   7  5.432   0.511   0.983   0.981   0.984   0.981   0.992
   8  5.514   0.588   0.992   0.992   0.991   0.967   0.985
   9  5.514   0.588   0.992   0.967   0.991   0.992   0.985
  10  5.484   0.575   0.983   0.975   0.991   0.975   0.985
  11  5.483   0.575   0.983   0.975   0.991   0.975   0.985
  12  5.484   0.575   0.983   0.975   0.991   0.975   0.985
  13  5.483   0.575   0.983   0.975   0.991   0.975   0.985
  14  5.510   0.587   0.993   0.966   0.993   0.986   0.986
  15  5.510   0.587   0.993   0.986   0.993   0.966   0.986
  16  5.473   0.550   0.988   0.980   0.987   0.980   0.988
  17  5.510   0.587   0.993   0.986   0.993   0.966   0.986
  18  5.510   0.587   0.993   0.966   0.993   0.986   0.986
  19  5.492   0.583   0.984   0.974   0.992   0.974   0.985
  20  5.491   0.582   0.984   0.974   0.992   0.974   0.985
  21  5.492   0.583   0.984   0.974   0.992   0.974   0.985
  22  5.492   0.582   0.984   0.974   0.992   0.974   0.985
  23  5.513   0.590   0.992   0.965   0.992   0.989   0.986
  24  5.513   0.590   0.992   0.989   0.992   0.965   0.986
  25  5.466   0.545   0.987   0.979   0.985   0.979   0.991
  26  5.513   0.590   0.992   0.989   0.992   0.965   0.986
  27  5.513   0.590   0.992   0.965   0.992   0.989   0.986
  28  5.488   0.576   0.985   0.975   0.992   0.975   0.985
  29  5.488   0.576   0.985   0.975   0.992   0.975   0.985
  30  5.488   0.575   0.985   0.975   0.992   0.975   0.985
  31  5.488   0.576   0.985   0.975   0.992   0.975   0.985
  32  5.521   0.599   0.992   0.965   0.992   0.987   0.986
  33  5.521   0.600   0.992   0.987   0.992   0.965   0.986
  34  5.470   0.547   0.987   0.979   0.986   0.979   0.991
  35  5.520   0.599   0.992   0.987   0.992   0.965   0.986
  36  5.521   0.599   0.992   0.965   0.992   0.987   0.986
  37  5.487   0.578   0.984   0.974   0.991   0.975   0.985
  38  5.488   0.579   0.984   0.974   0.991   0.974   0.985
  39  5.487   0.578   0.984   0.974   0.991   0.975   0.985
  40  5.488   0.579   0.984   0.974   0.991   0.974   0.985
  41  5.509   0.585   0.993   0.966   0.992   0.988   0.985
  42  5.509   0.585   0.993   0.988   0.992   0.966   0.985
  43  5.462   0.539   0.988   0.980   0.987   0.980   0.988
  44  5.508   0.585   0.993   0.988   0.992   0.966   0.985
  45  5.508   0.585   0.993   0.966   0.992   0.988   0.985
  46  5.492   0.582   0.984   0.974   0.992   0.974   0.985
  47  5.491   0.582   0.984   0.974   0.992   0.974   0.985
  48  5.492   0.583   0.984   0.974   0.992   0.974   0.985
  49  5.492   0.583   0.984   0.974   0.992   0.974   0.985
  50  5.518   0.593   0.991   0.968   0.991   0.991   0.984
  51  5.518   0.592   0.991   0.991   0.991   0.968   0.984
  52  5.436   0.511   0.983   0.982   0.987   0.982   0.992
  53  5.519   0.594   0.991   0.991   0.991   0.968   0.984
  54  5.517   0.592   0.991   0.968   0.991   0.991   0.984
  55  5.483   0.553   0.990   0.984   0.989   0.983   0.984
  56  5.480   0.550   0.990   0.984   0.989   0.984   0.985
  57  5.480   0.550   0.990   0.984   0.989   0.983   0.984
  58  5.479   0.548   0.990   0.984   0.989   0.984   0.984
  59  5.583   0.669   0.976   0.980   0.977   0.981   1.000
  61  5.375   0.500   0.993   0.952   0.955   0.987   0.988
 144  5.330   0.414   0.991   0.983   0.973   0.974   0.996
 145  5.568   0.652   0.976   0.980   0.981   0.980   1.000
 146  5.476   0.546   0.990   0.984   0.989   0.983   0.984
 147  5.470   0.540   0.990   0.983   0.989   0.983   0.984
 148  5.472   0.541   0.990   0.983   0.989   0.983   0.984
 149  5.465   0.535   0.990   0.983   0.989   0.983   0.984
 150  5.522   0.598   0.991   0.968   0.991   0.990   0.984
 151  5.522   0.598   0.991   0.990   0.991   0.968   0.984
 152  5.438   0.513   0.983   0.981   0.988   0.981   0.991
 153  5.518   0.594   0.991   0.990   0.991   0.968   0.984
 154  5.517   0.593   0.991   0.968   0.991   0.990   0.984
 155  5.489   0.579   0.984   0.974   0.992   0.974   0.985
 156  5.491   0.581   0.984   0.974   0.992   0.974   0.985
 157  5.490   0.581   0.984   0.974   0.992   0.974   0.985
 158  5.491   0.582   0.984   0.974   0.992   0.974   0.985
 159  5.507   0.584   0.992   0.965   0.992   0.988   0.985
 160  5.507   0.584   0.992   0.988   0.992   0.966   0.985
 161  5.460   0.537   0.988   0.980   0.986   0.980   0.988
 162  5.507   0.584   0.992   0.988   0.992   0.966   0.985
 163  5.507   0.583   0.992   0.966   0.992   0.988   0.985
 164  5.488   0.579   0.984   0.975   0.991   0.975   0.985
 165  5.487   0.578   0.984   0.975   0.991   0.975   0.985
 166  5.487   0.578   0.984   0.975   0.991   0.975   0.985
 167  5.487   0.577   0.984   0.975   0.991   0.975   0.985
 168  5.521   0.599   0.992   0.965   0.992   0.987   0.986
 169  5.521   0.599   0.992   0.987   0.992   0.965   0.986
 170  5.470   0.548   0.987   0.979   0.987   0.979   0.991
 171  5.521   0.600   0.992   0.986   0.992   0.965   0.986
 172  5.521   0.600   0.992   0.965   0.992   0.986   0.986
 173  5.487   0.575   0.985   0.975   0.992   0.975   0.985
 174  5.487   0.575   0.985   0.975   0.992   0.975   0.985
 175  5.487   0.575   0.985   0.975   0.992   0.975   0.985
 176  5.486   0.574   0.985   0.975   0.992   0.975   0.985
 177  5.513   0.589   0.992   0.965   0.992   0.989   0.986
 178  5.513   0.589   0.992   0.989   0.992   0.965   0.986
 179  5.465   0.545   0.987   0.979   0.985   0.979   0.991
 180  5.513   0.590   0.992   0.989   0.992   0.965   0.986
 181  5.513   0.590   0.992   0.965   0.992   0.989   0.986
 182  5.492   0.582   0.984   0.974   0.992   0.974   0.985
 183  5.492   0.583   0.984   0.974   0.992   0.974   0.985
 184  5.492   0.583   0.984   0.974   0.992   0.974   0.985
 185  5.493   0.584   0.984   0.974   0.992   0.974   0.985
 186  5.510   0.587   0.993   0.966   0.993   0.986   0.986
 187  5.510   0.587   0.993   0.986   0.993   0.966   0.986
 188  5.472   0.549   0.988   0.980   0.987   0.980   0.988
 189  5.510   0.587   0.993   0.986   0.993   0.966   0.986
 190  5.510   0.587   0.993   0.966   0.993   0.986   0.986
 191  5.483   0.574   0.983   0.975   0.991   0.975   0.985
 192  5.482   0.574   0.983   0.975   0.991   0.975   0.985
 193  5.482   0.574   0.983   0.975   0.991   0.975   0.985
 194  5.482   0.573   0.983   0.975   0.991   0.975   0.985
 195  5.515   0.589   0.992   0.967   0.991   0.992   0.985
 196  5.515   0.589   0.992   0.992   0.991   0.967   0.985
 197  5.432   0.512   0.983   0.981   0.984   0.981   0.991
 198  5.515   0.589   0.992   0.992   0.991   0.967   0.985
 199  5.515   0.589   0.992   0.967   0.991   0.992   0.985
 200  5.498   0.565   0.989   0.985   0.993   0.985   0.982
 201  5.499   0.565   0.989   0.985   0.993   0.985   0.982
 202  5.498   0.565   0.989   0.985   0.993   0.985   0.982
 203  5.498   0.565   0.989   0.985   0.993   0.985   0.982

Species: C                   
Atom  Qatom  Qorb
               2s      2s      2py     2pz     2px     2py     2pz     2px     
               2Pdxy   2Pdyz   2Pdz2   2Pdxz   2Pdx2-y2
  62  1.885   0.135   0.310   0.205   0.275   0.158   0.239   0.172   0.276
              0.019   0.022   0.029   0.029   0.016
  64  2.162   0.375   0.187   0.345   0.315   0.322   0.069   0.203   0.159
              0.034   0.032   0.047   0.054   0.021
  66  1.698  -0.023   0.395   0.187   0.086   0.084   0.249   0.337   0.339
              0.012   0.009   0.008   0.010   0.007
  72  1.900   0.145   0.310   0.188   0.206   0.253   0.265   0.229   0.197
              0.018   0.028   0.017   0.025   0.017
  74  2.162   0.371   0.186   0.298   0.337   0.345   0.175   0.170   0.092
              0.020   0.065   0.040   0.039   0.024
  76  1.690  -0.026   0.394   0.073   0.091   0.185   0.350   0.334   0.250
              0.008   0.009   0.004   0.010   0.008
  82  1.893   0.144   0.311   0.251   0.223   0.156   0.180   0.230   0.290
              0.020   0.023   0.018   0.024   0.021
  84  2.174   0.382   0.177   0.353   0.322   0.339   0.132   0.166   0.119
              0.035   0.033   0.042   0.032   0.043
  86  1.691  -0.026   0.394   0.134   0.126   0.090   0.296   0.301   0.336
              0.005   0.010   0.005   0.013   0.008
  92  1.880   0.131   0.318   0.170   0.201   0.253   0.284   0.223   0.198
              0.016   0.025   0.016   0.024   0.020
  94  2.179   0.375   0.182   0.321   0.343   0.349   0.153   0.175   0.094
              0.016   0.068   0.037   0.050   0.017
  96  1.694  -0.024   0.393   0.085   0.090   0.181   0.340   0.335   0.254
              0.010   0.010   0.003   0.010   0.007
 102  1.894   0.144   0.312   0.254   0.184   0.196   0.170   0.263   0.266
              0.020   0.023   0.016   0.024   0.022
 104  2.170   0.367   0.185   0.350   0.342   0.302   0.128   0.142   0.167
              0.036   0.028   0.037   0.042   0.044
 106  1.689  -0.026   0.395   0.150   0.126   0.071   0.285   0.301   0.348
              0.005   0.009   0.005   0.013   0.008
 112  1.891   0.142   0.312   0.146   0.237   0.250   0.310   0.213   0.177
              0.016   0.020   0.022   0.023   0.022
 114  2.179   0.374   0.181   0.337   0.323   0.354   0.109   0.167   0.149
              0.044   0.020   0.042   0.040   0.040
 116  1.691  -0.027   0.394   0.089   0.117   0.148   0.331   0.310   0.288
              0.005   0.011   0.005   0.010   0.010
 122  1.889   0.139   0.313   0.250   0.235   0.143   0.197   0.197   0.309
              0.015   0.025   0.024   0.021   0.020
 124  2.234   0.385   0.174   0.344   0.360   0.366   0.160   0.140   0.095
              0.044   0.055   0.043   0.023   0.043
 126  1.787   0.067   0.350   0.218   0.124   0.124   0.233   0.310   0.297
              0.013   0.014   0.009   0.014   0.015
 129  1.786   0.068   0.347   0.189   0.145   0.128   0.252   0.292   0.296
              0.014   0.015   0.010   0.016   0.012
 132  1.788   0.066   0.347   0.179   0.167   0.133   0.268   0.274   0.290
              0.015   0.014   0.009   0.016   0.010
 135  1.797   0.072   0.351   0.146   0.201   0.146   0.296   0.222   0.279
              0.018   0.019   0.017   0.020   0.010

Species: H                   
Atom  Qatom  Qorb
               1s      1s      1Ppy    1Ppz    1Ppx    
  63  0.614   0.391   0.169   0.018   0.020   0.017
  67  0.609   0.395   0.160   0.018   0.017   0.019
  68  0.619   0.408   0.148   0.019   0.024   0.019
  69  0.623   0.413   0.149   0.020   0.024   0.017
  71  0.633   0.309   0.206   0.040   0.051   0.027
  73  0.594   0.341   0.201   0.016   0.019   0.018
  77  0.596   0.371   0.173   0.019   0.017   0.016
  78  0.596   0.374   0.170   0.016   0.018   0.017
  79  0.604   0.383   0.167   0.017   0.019   0.018
  81  0.614   0.281   0.224   0.032   0.037   0.040
  83  0.605   0.362   0.188   0.019   0.019   0.017
  87  0.605   0.385   0.166   0.016   0.019   0.019
  88  0.597   0.376   0.169   0.018   0.017   0.016
  89  0.597   0.373   0.172   0.016   0.019   0.017
  91  0.642   0.280   0.230   0.050   0.045   0.036
  93  0.609   0.358   0.192   0.024   0.016   0.019
  97  0.597   0.376   0.170   0.018   0.016   0.017
  98  0.603   0.387   0.163   0.016   0.019   0.018
  99  0.603   0.381   0.168   0.018   0.019   0.018
 101  0.650   0.289   0.226   0.025   0.067   0.043
 103  0.600   0.357   0.189   0.018   0.019   0.017
 107  0.599   0.376   0.169   0.016   0.019   0.019
 108  0.602   0.386   0.165   0.018   0.018   0.016
 109  0.608   0.382   0.171   0.018   0.019   0.018
 111  0.653   0.293   0.227   0.047   0.052   0.035
 113  0.607   0.358   0.189   0.023   0.017   0.020
 117  0.608   0.385   0.165   0.019   0.024   0.016
 118  0.609   0.395   0.161   0.016   0.017   0.020
 119  0.618   0.397   0.162   0.017   0.023   0.020
 121  0.653   0.289   0.231   0.040   0.046   0.047
 123  0.614   0.365   0.186   0.019   0.014   0.030
 127  0.612   0.380   0.175   0.018   0.020   0.019
 128  0.616   0.385   0.169   0.019   0.023   0.019
 130  0.605   0.383   0.169   0.017   0.017   0.019
 131  0.610   0.373   0.178   0.023   0.016   0.020
 133  0.608   0.363   0.184   0.017   0.024   0.020
 134  0.604   0.381   0.170   0.017   0.017   0.019
 136  0.586   0.359   0.182   0.016   0.013   0.016
 137  0.580   0.346   0.190   0.016   0.013   0.016
 139  0.540   0.221   0.251   0.023   0.023   0.022
 140  0.593   0.234   0.233   0.059   0.032   0.035
 141  0.539   0.219   0.251   0.023   0.022   0.023
 143  0.656   0.346   0.185   0.039   0.033   0.052

Species: N                   
Atom  Qatom  Qorb
               2s      2s      2py     2pz     2px     2py     2pz     2px     
               2Pdxy   2Pdyz   2Pdz2   2Pdxz   2Pdx2-y2
  60  2.487   0.367   0.228   0.334   0.489   0.751   0.194   0.084   0.015
              0.002   0.003   0.008   0.006   0.006
  70  2.216   0.144   0.358   0.579   0.140   0.166   0.123   0.343   0.325
              0.007   0.004   0.011   0.010   0.007
  80  2.229   0.150   0.355   0.247   0.179   0.489   0.274   0.324   0.174
              0.009   0.009   0.008   0.004   0.008
  90  2.218   0.144   0.359   0.241   0.241   0.411   0.295   0.287   0.201
              0.008   0.010   0.008   0.005   0.008
 100  2.228   0.155   0.351   0.234   0.137   0.545   0.279   0.349   0.139
              0.008   0.009   0.009   0.004   0.008
 110  2.232   0.154   0.351   0.316   0.325   0.284   0.260   0.246   0.257
              0.010   0.007   0.006   0.008   0.009
 120  2.216   0.149   0.354   0.448   0.280   0.155   0.187   0.263   0.340
              0.008   0.006   0.007   0.012   0.007
 138  2.073   0.028   0.438   0.176   0.210   0.185   0.350   0.320   0.336
              0.008   0.007   0.006   0.006   0.002

Species: O                   
Atom  Qatom  Qorb
               2s      2s      2py     2pz     2px     2py     2pz     2px     
               2Pdxy   2Pdyz   2Pdz2   2Pdxz   2Pdx2-y2
  65  2.949   0.526   0.222   0.652   0.499   0.811   0.048   0.158   0.014
              0.002   0.005   0.005   0.005   0.001
  75  2.958   0.535   0.223   0.822   0.509   0.673   0.012   0.132   0.034
              0.001   0.004   0.007   0.006   0.001
  85  2.933   0.504   0.235   0.559   0.612   0.763   0.124   0.094   0.025
              0.002   0.004   0.005   0.003   0.002
  95  2.956   0.536   0.223   0.812   0.530   0.663   0.012   0.120   0.042
              0.000   0.005   0.007   0.007   0.000
 105  2.980   0.535   0.223   0.657   0.620   0.813   0.046   0.058   0.007
              0.002   0.005   0.006   0.003   0.003
 115  2.986   0.539   0.220   0.726   0.702   0.670   0.014   0.041   0.056
              0.004   0.002   0.004   0.005   0.003
 125  3.065   0.638   0.157   0.586   0.840   0.835   0.063  -0.036  -0.036
              0.004   0.004   0.003   0.001   0.005
 142  2.982   0.524   0.226   0.779   0.647   0.673   0.029   0.053   0.033
              0.003   0.004   0.005   0.004   0.002

mulliken: Qtot =      772.984

mulliken: Spin DOWN 

Species: Au                  
Atom  Qatom  Qorb
               6s      5dxy    5dyz    5dz2    5dxz    5dx2-y2 
   1  5.499   0.565   0.989   0.985   0.993   0.985   0.982
   2  5.499   0.566   0.989   0.985   0.993   0.985   0.982
   3  5.499   0.565   0.989   0.985   0.993   0.985   0.982
   4  5.500   0.566   0.989   0.985   0.993   0.985   0.982
   5  5.514   0.588   0.992   0.967   0.991   0.992   0.985
   6  5.514   0.588   0.992   0.992   0.991   0.967   0.985
   7  5.432   0.511   0.983   0.981   0.984   0.981   0.992
   8  5.514   0.588   0.992   0.992   0.991   0.967   0.985
   9  5.514   0.588   0.992   0.967   0.991   0.992   0.985
  10  5.484   0.576   0.983   0.975   0.991   0.975   0.985
  11  5.484   0.575   0.983   0.975   0.991   0.975   0.985
  12  5.484   0.576   0.983   0.975   0.991   0.975   0.985
  13  5.484   0.575   0.983   0.975   0.991   0.975   0.985
  14  5.510   0.587   0.993   0.966   0.993   0.986   0.986
  15  5.510   0.587   0.993   0.986   0.993   0.966   0.986
  16  5.474   0.550   0.988   0.980   0.987   0.980   0.988
  17  5.510   0.588   0.993   0.986   0.993   0.966   0.986
  18  5.510   0.587   0.993   0.966   0.993   0.986   0.986
  19  5.492   0.583   0.984   0.974   0.992   0.974   0.985
  20  5.492   0.582   0.984   0.974   0.992   0.974   0.985
  21  5.493   0.583   0.984   0.974   0.992   0.974   0.985
  22  5.492   0.583   0.984   0.974   0.992   0.974   0.985
  23  5.514   0.590   0.992   0.965   0.992   0.989   0.986
  24  5.514   0.590   0.992   0.989   0.992   0.965   0.986
  25  5.466   0.545   0.987   0.979   0.985   0.979   0.991
  26  5.514   0.590   0.992   0.989   0.992   0.965   0.986
  27  5.514   0.590   0.992   0.965   0.992   0.989   0.986
  28  5.488   0.576   0.985   0.975   0.992   0.975   0.985
  29  5.488   0.576   0.985   0.975   0.992   0.975   0.985
  30  5.488   0.576   0.985   0.975   0.992   0.975   0.985
  31  5.488   0.576   0.985   0.975   0.992   0.975   0.985
  32  5.521   0.599   0.992   0.965   0.992   0.987   0.986
  33  5.521   0.600   0.992   0.987   0.992   0.965   0.986
  34  5.470   0.547   0.987   0.980   0.986   0.980   0.991
  35  5.521   0.599   0.992   0.987   0.992   0.965   0.986
  36  5.521   0.599   0.992   0.965   0.992   0.987   0.986
  37  5.488   0.578   0.984   0.974   0.991   0.974   0.985
  38  5.488   0.579   0.984   0.974   0.991   0.974   0.985
  39  5.487   0.578   0.984   0.974   0.991   0.975   0.985
  40  5.488   0.579   0.984   0.974   0.991   0.974   0.985
  41  5.509   0.585   0.993   0.966   0.992   0.988   0.985
  42  5.509   0.586   0.993   0.988   0.992   0.966   0.985
  43  5.463   0.539   0.988   0.980   0.987   0.980   0.988
  44  5.508   0.585   0.993   0.988   0.992   0.966   0.985
  45  5.508   0.585   0.993   0.966   0.992   0.988   0.985
  46  5.492   0.583   0.984   0.974   0.992   0.974   0.985
  47  5.492   0.583   0.984   0.974   0.992   0.974   0.985
  48  5.492   0.583   0.984   0.974   0.992   0.974   0.985
  49  5.492   0.583   0.984   0.974   0.992   0.974   0.985
  50  5.519   0.594   0.991   0.968   0.991   0.991   0.984
  51  5.518   0.593   0.991   0.991   0.991   0.968   0.984
  52  5.437   0.511   0.983   0.982   0.987   0.982   0.992
  53  5.519   0.594   0.991   0.991   0.991   0.968   0.984
  54  5.517   0.592   0.991   0.968   0.991   0.991   0.984
  55  5.483   0.553   0.990   0.984   0.989   0.984   0.984
  56  5.481   0.550   0.990   0.984   0.989   0.984   0.985
  57  5.481   0.550   0.990   0.984   0.989   0.983   0.984
  58  5.479   0.549   0.990   0.984   0.989   0.984   0.985
  59  5.583   0.669   0.976   0.980   0.977   0.981   1.000
  61  5.375   0.500   0.993   0.952   0.955   0.987   0.988
 144  5.330   0.414   0.991   0.983   0.973   0.974   0.996
 145  5.568   0.652   0.976   0.980   0.981   0.980   1.000
 146  5.476   0.546   0.990   0.984   0.989   0.983   0.984
 147  5.471   0.540   0.990   0.983   0.989   0.983   0.984
 148  5.472   0.542   0.990   0.983   0.989   0.983   0.984
 149  5.465   0.535   0.990   0.983   0.989   0.983   0.984
 150  5.522   0.598   0.991   0.968   0.991   0.990   0.984
 151  5.522   0.598   0.991   0.990   0.991   0.968   0.984
 152  5.438   0.513   0.983   0.981   0.988   0.981   0.991
 153  5.518   0.594   0.991   0.990   0.991   0.968   0.984
 154  5.517   0.593   0.991   0.968   0.991   0.990   0.984
 155  5.490   0.580   0.984   0.974   0.992   0.974   0.985
 156  5.491   0.582   0.984   0.974   0.992   0.974   0.985
 157  5.491   0.581   0.984   0.974   0.992   0.974   0.985
 158  5.492   0.583   0.984   0.974   0.992   0.974   0.985
 159  5.508   0.584   0.992   0.966   0.992   0.988   0.985
 160  5.508   0.584   0.993   0.988   0.992   0.966   0.985
 161  5.460   0.537   0.988   0.980   0.986   0.980   0.988
 162  5.508   0.584   0.992   0.988   0.992   0.966   0.985
 163  5.507   0.583   0.992   0.966   0.992   0.988   0.985
 164  5.488   0.579   0.984   0.975   0.991   0.975   0.985
 165  5.488   0.578   0.984   0.975   0.991   0.975   0.985
 166  5.488   0.578   0.984   0.975   0.991   0.975   0.985
 167  5.487   0.578   0.984   0.975   0.991   0.975   0.985
 168  5.521   0.600   0.992   0.965   0.992   0.987   0.986
 169  5.521   0.600   0.992   0.987   0.992   0.965   0.986
 170  5.471   0.548   0.987   0.979   0.987   0.979   0.991
 171  5.522   0.600   0.992   0.986   0.992   0.965   0.986
 172  5.521   0.600   0.992   0.965   0.992   0.986   0.986
 173  5.487   0.575   0.985   0.975   0.992   0.975   0.985
 174  5.487   0.575   0.985   0.975   0.992   0.975   0.985
 175  5.487   0.575   0.985   0.975   0.992   0.975   0.985
 176  5.486   0.574   0.985   0.975   0.992   0.975   0.985
 177  5.513   0.590   0.992   0.965   0.992   0.989   0.986
 178  5.513   0.590   0.992   0.989   0.992   0.965   0.986
 179  5.465   0.545   0.987   0.979   0.985   0.979   0.991
 180  5.513   0.590   0.992   0.989   0.992   0.965   0.986
 181  5.513   0.590   0.992   0.965   0.992   0.989   0.986
 182  5.492   0.582   0.984   0.974   0.992   0.974   0.985
 183  5.493   0.583   0.984   0.974   0.992   0.974   0.985
 184  5.493   0.583   0.984   0.974   0.992   0.974   0.985
 185  5.493   0.584   0.984   0.974   0.992   0.974   0.985
 186  5.510   0.587   0.993   0.966   0.993   0.986   0.986
 187  5.510   0.587   0.993   0.986   0.993   0.966   0.986
 188  5.473   0.550   0.988   0.980   0.987   0.980   0.988
 189  5.510   0.587   0.993   0.986   0.993   0.966   0.986
 190  5.510   0.587   0.993   0.966   0.993   0.986   0.986
 191  5.483   0.574   0.983   0.975   0.991   0.975   0.985
 192  5.483   0.574   0.983   0.975   0.991   0.975   0.985
 193  5.483   0.574   0.983   0.975   0.991   0.975   0.985
 194  5.483   0.574   0.983   0.975   0.991   0.975   0.985
 195  5.516   0.589   0.992   0.967   0.991   0.992   0.985
 196  5.516   0.589   0.992   0.992   0.991   0.967   0.985
 197  5.432   0.512   0.983   0.981   0.984   0.981   0.991
 198  5.515   0.589   0.992   0.992   0.991   0.967   0.985
 199  5.515   0.589   0.992   0.967   0.991   0.992   0.985
 200  5.499   0.565   0.989   0.985   0.993   0.985   0.982
 201  5.499   0.565   0.989   0.985   0.993   0.985   0.982
 202  5.499   0.565   0.989   0.985   0.993   0.985   0.982
 203  5.499   0.565   0.989   0.985   0.993   0.985   0.982

Species: C                   
Atom  Qatom  Qorb
               2s      2s      2py     2pz     2px     2py     2pz     2px     
               2Pdxy   2Pdyz   2Pdz2   2Pdxz   2Pdx2-y2
  62  1.885   0.135   0.310   0.205   0.275   0.158   0.239   0.172   0.276
              0.019   0.022   0.029   0.029   0.016
  64  2.162   0.375   0.187   0.345   0.315   0.322   0.069   0.203   0.159
              0.034   0.032   0.047   0.054   0.021
  66  1.698  -0.023   0.395   0.187   0.086   0.084   0.249   0.337   0.339
              0.012   0.009   0.008   0.010   0.007
  72  1.900   0.145   0.310   0.188   0.206   0.253   0.265   0.229   0.197
              0.018   0.028   0.017   0.025   0.017
  74  2.162   0.371   0.186   0.298   0.337   0.345   0.175   0.170   0.092
              0.020   0.065   0.040   0.039   0.024
  76  1.690  -0.026   0.394   0.073   0.091   0.185   0.350   0.334   0.250
              0.008   0.009   0.004   0.010   0.008
  82  1.893   0.144   0.311   0.251   0.223   0.156   0.180   0.230   0.290
              0.020   0.023   0.018   0.024   0.021
  84  2.174   0.382   0.177   0.353   0.322   0.339   0.132   0.166   0.119
              0.035   0.033   0.042   0.032   0.043
  86  1.691  -0.026   0.394   0.134   0.126   0.090   0.296   0.301   0.336
              0.005   0.010   0.005   0.013   0.008
  92  1.880   0.131   0.318   0.170   0.201   0.253   0.284   0.223   0.198
[...]
  87  0.605   0.385   0.166   0.016   0.019   0.019
  88  0.597   0.376   0.169   0.018   0.017   0.016
  89  0.597   0.373   0.172   0.016   0.019   0.017
  91  0.642   0.280   0.230   0.050   0.045   0.036
  93  0.609   0.358   0.192   0.024   0.016   0.019
  97  0.597   0.376   0.170   0.018   0.016   0.017
  98  0.603   0.387   0.163   0.016   0.019   0.018
  99  0.603   0.381   0.168   0.018   0.019   0.018
 101  0.650   0.289   0.226   0.025   0.067   0.043
 103  0.600   0.357   0.189   0.018   0.019   0.017
 107  0.599   0.376   0.169   0.016   0.019   0.019
 108  0.602   0.386   0.165   0.018   0.018   0.016
 109  0.608   0.382   0.171   0.018   0.019   0.018
 111  0.653   0.293   0.227   0.047   0.052   0.035
 113  0.607   0.358   0.189   0.023   0.017   0.020
 117  0.608   0.385   0.165   0.019   0.024   0.016
 118  0.609   0.395   0.161   0.016   0.017   0.020
 119  0.618   0.397   0.162   0.017   0.023   0.020
 121  0.653   0.289   0.231   0.040   0.046   0.047
 123  0.614   0.365   0.186   0.019   0.014   0.030
 127  0.612   0.380   0.175   0.018   0.020   0.019
 128  0.616   0.385   0.169   0.019   0.023   0.019
 130  0.605   0.383   0.169   0.017   0.017   0.019
 131  0.610   0.373   0.178   0.023   0.016   0.020
 133  0.608   0.363   0.184   0.017   0.024   0.020
 134  0.604   0.381   0.170   0.017   0.017   0.019
 136  0.586   0.359   0.182   0.016   0.013   0.016
 137  0.580   0.346   0.190   0.016   0.013   0.016
 139  0.540   0.221   0.251   0.023   0.023   0.022
 140  0.593   0.234   0.233   0.059   0.032   0.035
 141  0.539   0.219   0.251   0.023   0.022   0.023
 143  0.656   0.346   0.185   0.039   0.033   0.052

Species: N                   
Atom  Qatom  Qorb
               2s      2s      2py     2pz     2px     2py     2pz     2px     
               2Pdxy   2Pdyz   2Pdz2   2Pdxz   2Pdx2-y2
  60  2.487   0.367   0.228   0.334   0.489   0.751   0.194   0.084   0.015
              0.002   0.003   0.008   0.006   0.006
  70  2.217   0.144   0.358   0.579   0.140   0.166   0.123   0.343   0.325
              0.007   0.004   0.011   0.010   0.007
  80  2.229   0.150   0.355   0.247   0.179   0.489   0.274   0.324   0.174
              0.009   0.009   0.008   0.004   0.008
  90  2.218   0.144   0.359   0.241   0.241   0.411   0.295   0.287   0.201
              0.008   0.010   0.008   0.005   0.008
 100  2.228   0.155   0.351   0.234   0.137   0.545   0.279   0.349   0.140
              0.008   0.009   0.009   0.004   0.008
 110  2.232   0.154   0.351   0.316   0.325   0.284   0.260   0.247   0.257
              0.010   0.007   0.006   0.008   0.009
 120  2.216   0.149   0.354   0.448   0.280   0.155   0.187   0.263   0.340
              0.008   0.006   0.007   0.012   0.007
 138  2.073   0.028   0.438   0.176   0.210   0.185   0.350   0.320   0.336
              0.008   0.007   0.006   0.006   0.002

Species: O                   
Atom  Qatom  Qorb
               2s      2s      2py     2pz     2px     2py     2pz     2px     
               2Pdxy   2Pdyz   2Pdz2   2Pdxz   2Pdx2-y2
  65  2.949   0.526   0.222   0.652   0.499   0.811   0.048   0.158   0.014
              0.002   0.005   0.005   0.005   0.001
  75  2.958   0.535   0.223   0.822   0.509   0.673   0.012   0.132   0.034
              0.001   0.004   0.007   0.006   0.001
  85  2.933   0.504   0.235   0.559   0.612   0.763   0.124   0.094   0.025
              0.002   0.004   0.005   0.003   0.002
  95  2.956   0.536   0.223   0.812   0.530   0.663   0.012   0.120   0.042
              0.000   0.005   0.007   0.007   0.000
 105  2.980   0.535   0.223   0.657   0.620   0.813   0.046   0.058   0.007
              0.002   0.005   0.006   0.003   0.003
 115  2.986   0.539   0.220   0.726   0.702   0.670   0.014   0.041   0.056
              0.004   0.002   0.004   0.005   0.003
 125  3.065   0.638   0.157   0.586   0.841   0.835   0.063  -0.036  -0.036
              0.004   0.004   0.003   0.001   0.005
 142  2.982   0.524   0.226   0.779   0.647   0.673   0.029   0.053   0.033
              0.003   0.004   0.005   0.004   0.002

mulliken: Qtot =      773.016

coxmol: Writing XMOL coordinates into file em.xyz                                                              

siesta: Program's energy decomposition (eV):
siesta: Ebs     =    -11694.654361
siesta: Eions   =    131538.831527
siesta: Ena     =      3372.542093
siesta: Ekin    =     88534.923294
siesta: Enl     =    -59132.170447
siesta: Eso     =         0.000000
siesta: Eldau   =         0.000000
siesta: DEna    =       -56.433452
siesta: DUscf   =        31.781932
siesta: DUext   =         0.000000
siesta: Exc     =    -20207.622020
siesta: eta*DQ  =         0.000000
siesta: Emadel  =         0.000000
siesta: Emeta   =         0.000000
siesta: Emolmec =         0.000000
siesta: Ekinion =         0.000000
siesta: Eharris =   -118995.810123
siesta: Etot    =   -118995.810127
siesta: FreeEng =   -118996.083957

siesta: Final energy (eV):
siesta:  Band Struct. =  -11694.654361
siesta:       Kinetic =   88534.923294
siesta:       Hartree =  549133.862497
siesta:       Eldau   =       0.000000
siesta:       Eso     =       0.000000
siesta:    Ext. field =       0.000000
siesta:   Exch.-corr. =  -20207.622020
siesta:  Ion-electron =-1172045.049789
siesta:       Ion-ion =  435588.075892
siesta:       Ekinion =       0.000000
siesta:         Total = -118995.810127
siesta:         Fermi =      -2.065113

siesta: Atomic forces (eV/Ang):
siesta:      1   -0.487953   -0.485767   -0.755539
siesta:      2   -0.483930    0.486491   -0.761572
siesta:      3    0.488331   -0.485859   -0.754283
siesta:      4    0.484424    0.486709   -0.761414
siesta:      5   -0.995101    0.001352    0.252479
siesta:      6    0.000547   -0.995442    0.249109
siesta:      7   -0.001899   -0.000273   -0.667565
siesta:      8   -0.000062    0.995095    0.254046
siesta:      9    0.995552    0.000742    0.250720
siesta:     10   -1.228762   -1.229979    0.079367
siesta:     11   -1.229585    1.229780    0.077033
siesta:     12    1.229158   -1.229069    0.078662
siesta:     13    1.230786    1.229675    0.077094
siesta:     14   -0.781671    0.000544   -0.024632
siesta:     15    0.000220   -0.779084   -0.026356
siesta:     16   -0.002428   -0.006318   -0.022614
siesta:     17    0.000282    0.784666   -0.023692
siesta:     18    0.782252    0.000604   -0.025309
siesta:     19   -1.209982   -1.211823    0.050140
siesta:     20   -1.213052    1.211063    0.050213
siesta:     21    1.210305   -1.212452    0.048974
siesta:     22    1.213795    1.212119    0.050569
siesta:     23   -0.862902   -0.000488   -0.081759
siesta:     24    0.000160   -0.861247   -0.076426
siesta:     25   -0.000186   -0.002920    0.040571
siesta:     26    0.000388    0.865464   -0.085849
siesta:     27    0.863897   -0.000258   -0.080404
siesta:     28   -1.142739   -1.143735    0.002808
siesta:     29   -1.143352    1.142698    0.004154
siesta:     30    1.143142   -1.144045    0.002133
siesta:     31    1.143819    1.143079    0.005883
siesta:     32   -0.889587   -0.001204    0.077002
siesta:     33    0.000497   -0.890988    0.076563
siesta:     34   -0.000706    0.001141   -0.041418
siesta:     35    0.000153    0.888804    0.075610
siesta:     36    0.890625   -0.001542    0.075610
siesta:     37   -1.208320   -1.207048   -0.045237
siesta:     38   -1.208474    1.211129   -0.045791
siesta:     39    1.208344   -1.205886   -0.045799
siesta:     40    1.209198    1.210664   -0.046260
siesta:     41   -0.785404    0.000333   -0.002118
siesta:     42    0.000216   -0.787628   -0.002105
siesta:     43   -0.001500    0.002231    0.053260
siesta:     44    0.000112    0.784868   -0.001783
siesta:     45    0.787685    0.000233   -0.002219
siesta:     46   -1.182045   -1.181123   -0.056133
siesta:     47   -1.176047    1.177825   -0.059196
siesta:     48    1.183740   -1.182805   -0.054922
siesta:     49    1.179167    1.180921   -0.058204
siesta:     50   -1.026004    0.004743   -0.222815
siesta:     51   -0.000450   -1.022021   -0.233502
siesta:     52   -0.000365   -0.003176    0.334115
siesta:     53   -0.000657    1.030779   -0.214447
siesta:     54    1.025923    0.004522   -0.223874
siesta:     55   -0.761997   -0.764882    0.503376
siesta:     56   -0.758988    0.758291    0.500747
siesta:     57    0.761677   -0.762294    0.503722
siesta:     58    0.760118    0.757168    0.500246
siesta:     59   -0.026026    0.207838    1.739102
siesta:     60   -0.520972    1.762568    1.770830
siesta:     61    0.084670   -0.078828   -1.057045
siesta:     62   -1.513331   -0.767340   -1.837778
siesta:     63    0.887402   -0.191299    0.658986
siesta:     64    0.606443    0.648694   -0.226001
siesta:     65   -0.277698   -0.585613    0.826880
siesta:     66   -0.155549   -1.083308    0.610456
siesta:     67    0.253898    0.273449    0.606644
siesta:     68    0.177971   -0.128379   -0.617839
siesta:     69   -0.572747    0.076757   -0.337866
siesta:     70   -0.475122   -0.620973    1.421446
siesta:     71    0.312458    0.027079   -1.255034
siesta:     72    0.343680   -0.604952   -1.172788
siesta:     73    0.129184    0.419749    0.671952
siesta:     74   -0.322469    0.750664    0.667462
siesta:     75    0.369723   -0.158317   -0.529036
siesta:     76    1.101949   -0.093843    0.378236
siesta:     77   -0.313813   -0.109547    0.468888
siesta:     78   -0.078423    0.437581   -0.202670
siesta:     79   -0.040047   -0.387632   -0.351637
siesta:     80    0.341277   -0.825937    0.516632
siesta:     81   -0.064311    0.303878   -0.309335
siesta:     82    0.837130    0.743073   -0.632257
siesta:     83   -0.617210   -0.105665    0.458338
siesta:     84    0.112862    0.641145   -0.208717
siesta:     85   -0.456753   -0.727985    0.331680
siesta:     86   -0.499877    0.897223    0.719941
siesta:     87    0.194920   -0.432401    0.276531
siesta:     88   -0.356608   -0.119047   -0.349094
siesta:     89    0.496748    0.191424   -0.185090
siesta:     90   -0.088953   -0.745246    0.888617
siesta:     91   -0.153991    0.764581   -0.683301
siesta:     92   -0.082024    0.744713   -0.910081
siesta:     93   -0.103375   -0.613749    0.549733
siesta:     94   -0.250137    0.112590    0.617397
siesta:     95   -0.162069   -0.123206   -0.759649
siesta:     96   -1.063158   -0.317386    0.292505
siesta:     97    0.205074    0.161612    0.401005
siesta:     98    0.216800   -0.391614   -0.232592
siesta:     99   -0.151347    0.456227   -0.421677
siesta:    100   -0.066540    0.213501    0.653308
siesta:    101   -0.003086    0.013783   -1.019983
siesta:    102   -0.599754   -0.396493   -0.819712
siesta:    103    0.357042    0.006693    0.610554
siesta:    104   -0.010351    0.591973    0.725409
siesta:    105    0.055893   -0.653094   -0.939725
siesta:    106    0.046526   -0.967422    0.721583
siesta:    107   -0.190895    0.395802    0.378206
siesta:    108    0.450832    0.029029   -0.282455
siesta:    109   -0.391696   -0.152071   -0.401960
siesta:    110   -0.445530    0.007786    0.516005
siesta:    111    0.121432   -0.457173   -0.550334
siesta:    112    0.510294   -0.856329   -0.476025
siesta:    113    0.042147    0.734527    0.349007
siesta:    114   -0.343061   -0.043085    0.400424
siesta:    115    0.556373   -0.019230   -0.669492
siesta:    116    0.932893    0.419758    0.612467
siesta:    117   -0.386220   -0.105616    0.526821
siesta:    118   -0.061816    0.323177   -0.426088
siesta:    119    0.265146   -0.546535   -0.324022
siesta:    120   -0.376057   -0.666210    0.427853
siesta:    121    0.659829    0.362222   -0.297908
siesta:    122    0.692077    0.117335   -0.665155
siesta:    123   -0.836118    0.019245    0.191762
siesta:    124    0.254030    4.124035   -0.154769
siesta:    125   -0.776782   -2.955658   -1.322441
siesta:    126   -1.177751    0.319830   -0.427458
siesta:    127    0.551485    0.231155   -0.425695
siesta:    128    0.259320   -0.064812    0.717658
siesta:    129    1.145409   -0.158241    0.103222
siesta:    130   -0.369912   -0.212007    0.290867
siesta:    131   -0.295893    0.524564   -0.420196
siesta:    132   -1.195407    0.109343   -0.144271
siesta:    133    0.467416    0.387128   -0.524847
siesta:    134    0.253601   -0.345472    0.354941
siesta:    135    1.351581    0.149342    0.033042
siesta:    136   -0.355381   -0.414919    0.305808
siesta:    137   -0.371503    0.495178   -0.279305
siesta:    138   -0.664958    0.001212    0.760015
siesta:    139   -0.272530   -0.190448   -0.251483
siesta:    140    0.793606    1.415618   -0.591960
siesta:    141    0.325982   -0.189148    0.280526
siesta:    142    0.129783   -1.501686    0.150492
siesta:    143    0.396456   -0.473081    0.207175
siesta:    144    0.068642   -0.143815    1.101447
siesta:    145    0.153265    0.153763   -1.553923
siesta:    146    0.740232    0.739829   -0.513971
siesta:    147    0.736913   -0.745938   -0.514472
siesta:    148   -0.748191    0.739115   -0.511703
siesta:    149   -0.743344   -0.743854   -0.514129
siesta:    150    1.051746    0.004097    0.202977
siesta:    151    0.004710    1.052279    0.202278
siesta:    152   -0.002844   -0.002439   -0.321067
siesta:    153    0.003775   -1.045290    0.215552
siesta:    154   -1.043530    0.003159    0.215513
siesta:    155    1.149531    1.149462    0.065410
siesta:    156    1.159069   -1.154782    0.060591
siesta:    157   -1.154502    1.158077    0.061046
siesta:    158   -1.163784   -1.163158    0.054850
siesta:    159    0.786594    0.001463   -0.004037
siesta:    160    0.001109    0.787416   -0.004469
siesta:    161   -0.000724   -0.000762   -0.068057
siesta:    162    0.000865   -0.788865   -0.003515
siesta:    163   -0.788497    0.001211   -0.003381
siesta:    164    1.208615    1.207588    0.050369
siesta:    165    1.203456   -1.204372    0.051090
siesta:    166   -1.205068    1.203320    0.050845
siesta:    167   -1.199695   -1.199888    0.051229
siesta:    168    0.885604   -0.001340   -0.071313
siesta:    169   -0.001306    0.886369   -0.071700
siesta:    170   -0.001264   -0.001283    0.023757
siesta:    171   -0.000826   -0.886046   -0.069968
siesta:    172   -0.885795   -0.000856   -0.069849
siesta:    173    1.144767    1.144421   -0.002718
siesta:    174    1.145741   -1.145557   -0.002101
siesta:    175   -1.145858    1.145557   -0.002004
siesta:    176   -1.145898   -1.145761   -0.001110
siesta:    177    0.857631   -0.000294    0.077527
siesta:    178   -0.000324    0.857850    0.077531
siesta:    179   -0.003262   -0.003025   -0.030903
siesta:    180    0.000229   -0.856748    0.069894
siesta:    181   -0.856187    0.000252    0.069985
siesta:    182    1.203150    1.203399   -0.049739
siesta:    183    1.205238   -1.201956   -0.048894
siesta:    184   -1.201903    1.204501   -0.048955
siesta:    185   -1.203952   -1.203012   -0.046982
siesta:    186    0.781921    0.000284    0.028387
siesta:    187    0.000320    0.782011    0.028300
siesta:    188   -0.004544   -0.004313    0.009045
siesta:    189    0.000377   -0.779438    0.031093
siesta:    190   -0.778865    0.000339    0.031183
siesta:    191    1.225664    1.225416   -0.075888
siesta:    192    1.222922   -1.224627   -0.077188
siesta:    193   -1.225096    1.222986   -0.077172
siesta:    194   -1.222059   -1.221905   -0.077227
siesta:    195    0.997632    0.000912   -0.253698
siesta:    196    0.000898    0.998059   -0.253530
siesta:    197    0.000854    0.000727    0.672986
siesta:    198    0.000707   -0.996727   -0.249958
siesta:    199   -0.996431    0.000726   -0.249920
siesta:    200    0.474672    0.474187    0.768443
siesta:    201    0.477607   -0.474330    0.765022
siesta:    202   -0.474616    0.477249    0.764505
siesta:    203   -0.477094   -0.476938    0.760830
siesta: ----------------------------------------
siesta:    Tot   -0.016546    0.045164   -0.015253

siesta: Stress tensor (static) (eV/Ang**3):
siesta:    -0.001890    0.000032   -0.000025
siesta:     0.000032   -0.001799    0.000066
siesta:    -0.000025    0.000066   -0.001732

siesta: Cell volume =      72424.536210 Ang**3

siesta: Pressure (static):
siesta:                Solid            Molecule  Units
siesta:           0.00001968         -0.00000011  Ry/Bohr**3
siesta:           0.00180693         -0.00000971  eV/Ang**3
siesta:           2.89504445         -0.01556087  kBar
(Free)E+ p_basis*V_orbitals  =     -118941.654154
(Free)Eharris+ p_basis*V_orbitals  =     -118941.654150

siesta: Total spin polarization (Qup-Qdown) =   -0.032510

siesta: Electric dipole (a.u.)  =    0.486924   -5.770524    0.000000
siesta: Electric dipole (Debye) =    1.237639  -14.667220    0.000000

dhscf: Vacuum level (max, mean) =    2.450717    0.045552 eV

timer: Elapsed wall time (sec) =   27592.567
timer: CPU execution times (sec):

Routine            Calls   Time/call    Tot.time        %
siesta                 1   27590.504   27590.504   100.00
Setup                  1       0.266       0.266     0.00
bands                  1       0.000       0.000     0.00
KSV_init               1       0.000       0.000     0.00
IterGeom               1   27567.699   27567.699    99.92
state_init             1       1.414       1.414     0.01
hsparse                1       0.035       0.035     0.00
overlap                1       1.347       1.347     0.00
Setup_H0               1      47.577      47.577     0.17
naefs                  2       0.003       0.005     0.00
MolMec                 2       0.000       0.000     0.00
kinefsm                2       0.716       1.432     0.01
nlefsm                 2       4.771       9.543     0.03
DHSCF_Init             1      36.983      36.983     0.13
DHSCF1                 1       0.331       0.331     0.00
INITMESH               1       0.000       0.000     0.00
DHSCF2                 1      36.651      36.651     0.13
REMESH                 1       6.580       6.580     0.02
REORD                279       0.200      55.808     0.20
PHION                  1      14.335      14.335     0.05
COMM_BSC             274       0.200      54.869     0.20
POISON                69       8.903     614.305     2.23
fft                  138       3.601     497.005     1.80
IterSCF               65     422.659   27472.816    99.57
setup_H               66      24.679    1628.837     5.90
DHSCF                 68      24.716    1680.672     6.09
DHSCF3                68      24.398    1659.090     6.01
rhoofd                68       3.393     230.693     0.84
CellXC                68       3.330     226.449     0.82
cellXC                68       3.330     226.449     0.82
vmat                  67       2.910     194.959     0.71
writeHSX              67       0.039       2.589     0.01
compute_dm            65     397.580   25842.677    93.67
diagon                65     397.576   25842.462    93.66
c-eigval            1820       4.479    8152.620    29.55
c-buildHS           1820       0.008      15.036     0.05
cdiag               3640       6.485   23605.022    85.55
cdiag1              3640       0.595    2165.328     7.85
cdiag2              3640       1.476    5371.915    19.47
cdiag3              3640       3.849   14011.298    50.78
cdiag4              3640       0.565    2056.239     7.45
c-eigvec            1820       8.507   15482.554    56.12
c-buildD            1820       1.213    2206.790     8.00
MIXER                 64       0.014       0.883     0.00
PostSCF                1      45.879      45.879     0.17
DHSCF4                 1      21.582      21.582     0.08
dfscf                  1      15.326      15.326     0.06
overfsm                1       0.062       0.062     0.00
state_analysis         1       0.004       0.004     0.00
siesta_move            1       0.000       0.000     0.00
Analysis               1      22.498      22.498     0.08
optical                1       0.000       0.000     0.00
  
>> End of run:  24-JUN-2025  18:56:22
Job completed
