
                           ***********************       
                           *  WELCOME TO SIESTA  *       
                           ***********************       

reinit: Reading from standard input
reinit: Dumped input in INPUT_TMP.74884
************************** Dump of input data file ****************************
SystemName  em
SystemLabel em
==================================================
==================================================
# SPECIES AND BASIS
# Number of species
NumberOfSpecies 5
%block ChemicalSpeciesLabel
  1   79  Au
  2    6  C
  3    1  H
  4    7  N
  5    8  O
%endblock ChemicalSpeciesLabel
%block    PAO.BasisSizes
  Au        SZ
   N        DZP
   C        DZP
   H        DZP
   O        DZP
%endblock PAO.BasisSizes
%block PS.lmax
  Au  2
%endblock PS.lmax
==================================================
==================================================
# K-points
%block kgrid_Monkhorst_Pack
3   0   0   0.0
0   3   0   0.0
0   0   3   0.0
%endblock kgrid_Monkhorst_Pack
T CELL AND ATOMIC POSITIONS
==================================================
==================================================
# UNIT CELL AND ATOMIC POSITIONS
# UNIT CELL
LatticeConstant       1.00 Ang
%block LatticeVectors
30.00000000   0.00000000000   0.0000000000
0.000000000   30.0000000000   0.0000000000
0.000000000   0.00000000000  80.4717069000
%endblock LatticeVectors
# Atomic coordinates
NumberOfAtoms 203
AtomicCoordinatesFormat ScaledCartesian
%block AtomicCoordinatesAndAtomicSpecies < ../em.fdf
==================================================
==================================================
# General variables
#ElectronicTemperature  100 K
MeshCutoff           350. Ry
xc.functional         LDA           # Exchange-correlation functional
xc.authors            CA
SpinPolarized .true.
SpinOrbit	.true.
SolutionMethod diagon
#SolutionMethod Transiesta
NetCharge		1
==================================================
==================================================
# SCF variables
DM.MixSCF1   T
MaxSCFIterations      300           # Maximum number of SCF iter
DM.MixingWeight       0.03          # New DM amount for next SCF cycle
DM.Tolerance          1.d-4         # Tolerance in maximum difference
DM.UseSaveDM          true          # to use continuation files
DM.NumberPulay         5
Diag.DivideAndConquer  no
Diag.ParallelOverK     yes
==================================================
==================================================
# MD variables
MD.FinalTimeStep 1
MD.TypeOfRun CG
MD.NumCGsteps     000
MD.UseSaveXV      .true.
==================================================
==================================================
# Output variables
WriteMullikenPop                1
WriteBands                      .false.
SaveRho                         .false.
SaveDeltaRho                    .false.
SaveHS                          .true.
SaveElectrostaticPotential      True
SaveTotalPotential              no
WriteCoorXmol                   .true.
WriteMDXmol                     .true.
WriteMDhistory                  .false.
WriteEigenvalues                yes
==================================================
==================================================
# Transiesta information
# GF OPTIONS
TS.ComplexContour.Emin    -30.0 eV
TS.ComplexContour.NPoles       10
TS.ComplexContour.NCircle      30
TS.ComplexContour.NLine        10
# BIAS OPTIONS
TS.biasContour.NumPoints       00
# TS OPTIONS
TS.Voltage 0.000000 eV
# TBT OPTIONS
TS.TBT.Emin -5.0 eV
TS.TBT.Emax +5.0 eV
TS.TBT.NPoints 500
TS.TBT.NEigen 3
TS.TBT.Eta        0.000001 Ry
# Write hamiltonian
TS.SaveHS   .true.
# LEFT ELECTRODE
TS.HSFileLeft  ./Au_Elec_ABC.TSHS
#TS.ReplicateA1Left    1
#TS.ReplicateA2Left    1
TS.NumUsedAtomsLeft    9
TS.BufferAtomsLeft     0
# RIGHT ELECTRODE
TS.HSFileRight  ./Au_Elec_ABC.TSHS
#TS.ReplicateA1Right   1
#TS.ReplicateA2Right   1
TS.NumUsedAtomsRight   9
TS.BufferAtomsRight    0
==================================================
==================================================
************************** End of input data file *****************************

reinit: -----------------------------------------------------------------------
reinit: System Name: em
reinit: -----------------------------------------------------------------------
reinit: System Label: em
reinit: -----------------------------------------------------------------------
Siesta Version: siesta-4.1--736
Architecture  : unknown
Compiler flags: gfortran -O2 -fPIC -ftree-vectorize -fallow-argument-mismatch
PP flags      : -DFC_HAVE_ABORT
Libraries     : libsiestaLAPACK.a libsiestaBLAS.a
SERIAL version

* Running in serial mode
>> Start of run:  26-JUN-2025  16:05:12

initatom: Reading input for the pseudopotentials and atomic orbitals ----------
Species number:   1 Atomic number:   79 Label: Au
Species number:   2 Atomic number:    6 Label: C
Species number:   3 Atomic number:    1 Label: H
Species number:   4 Atomic number:    7 Label: N
Species number:   5 Atomic number:    8 Label: O

Ground state valence configuration:   6s01  5d10
Reading pseudopotential information in formatted form from Au.psf

Pseudopotential generated from a relativistic atomic calculation
There are spin-orbit pseudopotentials available
Spin-orbit interaction is not included in this calculation

Valence configuration for pseudopotential generation:
6s( 1.00) rc: 2.60
6p( 0.00) rc: 2.77
5d(10.00) rc: 2.60
5f( 0.00) rc: 2.60
Ground state valence configuration:   2s02  2p02
Reading pseudopotential information in formatted form from C.psf

Pseudopotential generated from a relativistic atomic calculation
There are spin-orbit pseudopotentials available
Spin-orbit interaction is not included in this calculation

Valence configuration for pseudopotential generation:
2s( 2.00) rc: 1.54
2p( 2.00) rc: 1.54
3d( 0.00) rc: 1.54
4f( 0.00) rc: 1.54
Ground state valence configuration:   1s01
Reading pseudopotential information in formatted form from H.psf

Pseudopotential generated from a relativistic atomic calculation
There are spin-orbit pseudopotentials available
Spin-orbit interaction is not included in this calculation

Valence configuration for pseudopotential generation:
1s( 1.00) rc: 1.31
2p( 0.00) rc: 1.31
3d( 0.00) rc: 0.37
4f( 0.00) rc: 1.31
Ground state valence configuration:   2s02  2p03
Reading pseudopotential information in formatted form from N.psf

Pseudopotential generated from a relativistic atomic calculation
There are spin-orbit pseudopotentials available
Spin-orbit interaction is not included in this calculation

Valence configuration for pseudopotential generation:
2s( 2.00) rc: 1.48
2p( 3.00) rc: 1.48
3d( 0.00) rc: 1.48
4f( 0.00) rc: 1.48
Ground state valence configuration:   2s02  2p04
Reading pseudopotential information in formatted form from O.psf

Pseudopotential generated from a relativistic atomic calculation
There are spin-orbit pseudopotentials available
Spin-orbit interaction is not included in this calculation

Valence configuration for pseudopotential generation:
2s( 2.00) rc: 1.47
2p( 4.00) rc: 1.47
3d( 0.00) rc: 1.47
4f( 0.00) rc: 1.47
resizes: Read basis size for species Au = sz                  
resizes: Read basis size for species N = dzp                 
resizes: Read basis size for species C = dzp                 
resizes: Read basis size for species H = dzp                 
resizes: Read basis size for species O = dzp                 
relmxkb: Read Max KB Ang. Momentum=    2 for species Au
For C, standard SIESTA heuristics set lmxkb to 3
 (one more than the basis l, including polarization orbitals).
Use PS.lmax or PS.KBprojectors blocks to override.
For H, standard SIESTA heuristics set lmxkb to 2
 (one more than the basis l, including polarization orbitals).
Use PS.lmax or PS.KBprojectors blocks to override.
For N, standard SIESTA heuristics set lmxkb to 3
 (one more than the basis l, including polarization orbitals).
Use PS.lmax or PS.KBprojectors blocks to override.
For O, standard SIESTA heuristics set lmxkb to 3
 (one more than the basis l, including polarization orbitals).
Use PS.lmax or PS.KBprojectors blocks to override.

<basis_specs>
===============================================================================
Au                   Z=  79    Mass=  196.97        Charge= 0.17977+309
Lmxo=2 Lmxkb= 2    BasisType=split      Semic=F
L=0  Nsemic=0  Cnfigmx=6
          n=1  nzeta=1  polorb=0
            splnorm:   0.15000    
               vcte:    0.0000    
               rinn:    0.0000    
               qcoe:    0.0000    
               qyuk:    0.0000    
               qwid:   0.10000E-01
                rcs:    0.0000    
            lambdas:    1.0000    
L=1  Nsemic=0  Cnfigmx=6
L=2  Nsemic=0  Cnfigmx=5
          n=1  nzeta=1  polorb=0
            splnorm:   0.15000    
               vcte:    0.0000    
               rinn:    0.0000    
               qcoe:    0.0000    
               qyuk:    0.0000    
               qwid:   0.10000E-01
                rcs:    0.0000    
            lambdas:    1.0000    
-------------------------------------------------------------------------------
L=0  Nkbl=1  erefs: 0.17977+309
L=1  Nkbl=1  erefs: 0.17977+309
L=2  Nkbl=1  erefs: 0.17977+309
===============================================================================
</basis_specs>

atom: Called for Au                    (Z =  79)

read_vps: Pseudopotential generation method:
read_vps: ATM4.2.7  Troullier-Martins                       
Total valence charge:   11.00000

xc_check: Exchange-correlation functional:
xc_check: Ceperley-Alder
V l=0 = -2*Zval/r beyond r=  3.7361
V l=1 = -2*Zval/r beyond r=  3.7361
V l=2 = -2*Zval/r beyond r=  3.7361
All V_l potentials equal beyond r=  2.6994
This should be close to max(r_c) in ps generation
All pots = -2*Zval/r beyond r=  3.7361
Using large-core scheme for Vlocal

atom: Estimated core radius    3.73611

atom: Including non-local core corrections could be a good idea
atom: Maximum radius for 4*pi*r*r*local-pseudopot. charge    4.07775
atom: Maximum radius for r*vlocal+2*Zval:    3.78310
GHOST: No ghost state for L =  0
GHOST: No ghost state for L =  1
GHOST: No ghost state for L =  2

KBgen: Kleinman-Bylander projectors: 
   l= 0   rc=  2.802581   el= -0.445644   Ekb=  3.908625   kbcos=  0.222548
   l= 1   rc=  2.802581   el= -0.066825   Ekb=  1.555330   kbcos=  0.234902
   l= 2   rc=  2.767767   el= -0.526351   Ekb= -5.977941   kbcos= -0.723482

KBgen: Total number of  Kleinman-Bylander projectors:    9
atom: -------------------------------------------------------------------------

atom: SANKEY-TYPE ORBITALS:

SPLIT: Orbitals with angular momentum L= 0

SPLIT: Basis orbitals for state 6s

SPLIT: PAO cut-off radius determined from an
SPLIT: energy shift=  0.020000 Ry

   izeta = 1
                 lambda =    1.000000
                     rc =    6.083298
                 energy =   -0.427287
                kinetic =    0.392598
    potential(screened) =   -0.819885
       potential(ionic) =   -8.596164

SPLIT: Orbitals with angular momentum L= 2

SPLIT: Basis orbitals for state 5d

SPLIT: PAO cut-off radius determined from an
SPLIT: energy shift=  0.020000 Ry

   izeta = 1
                 lambda =    1.000000
                     rc =    4.286818
                 energy =   -0.508109
                kinetic =    4.851847
    potential(screened) =   -5.359956
       potential(ionic) =  -16.120163
atom: Total number of Sankey-type orbitals:  6

atm_pop: Valence configuration (for local Pseudopot. screening):
 6s( 1.00)                                                            
 6p( 0.00)                                                            
 5d(10.00)                                                            
Vna: chval, zval:   11.00000  11.00000

Vna:  Cut-off radius for the neutral-atom potential:   6.083298

atom: _________________________________________________________________________

<basis_specs>
===============================================================================
C                    Z=   6    Mass=  12.010        Charge= 0.17977+309
Lmxo=1 Lmxkb= 3    BasisType=split      Semic=F
L=0  Nsemic=0  Cnfigmx=2
          n=1  nzeta=2  polorb=0
            splnorm:   0.15000    
               vcte:    0.0000    
               rinn:    0.0000    
               qcoe:    0.0000    
               qyuk:    0.0000    
               qwid:   0.10000E-01
                rcs:    0.0000      0.0000    
            lambdas:    1.0000      1.0000    
L=1  Nsemic=0  Cnfigmx=2
          n=1  nzeta=2  polorb=1
            splnorm:   0.15000    
               vcte:    0.0000    
               rinn:    0.0000    
               qcoe:    0.0000    
               qyuk:    0.0000    
               qwid:   0.10000E-01
                rcs:    0.0000      0.0000    
            lambdas:    1.0000      1.0000    
-------------------------------------------------------------------------------
L=0  Nkbl=1  erefs: 0.17977+309
L=1  Nkbl=1  erefs: 0.17977+309
L=2  Nkbl=1  erefs: 0.17977+309
L=3  Nkbl=1  erefs: 0.17977+309
===============================================================================
</basis_specs>

atom: Called for C                     (Z =   6)

read_vps: Pseudopotential generation method:
read_vps: ATM4.2.7  Troullier-Martins                       
Total valence charge:    4.00000

xc_check: Exchange-correlation functional:
xc_check: Ceperley-Alder
V l=0 = -2*Zval/r beyond r=  1.5227
V l=1 = -2*Zval/r beyond r=  1.5227
V l=2 = -2*Zval/r beyond r=  1.5227
V l=3 = -2*Zval/r beyond r=  1.5038
All V_l potentials equal beyond r=  1.5227
This should be close to max(r_c) in ps generation
All pots = -2*Zval/r beyond r=  1.5227

VLOCAL1: 99.0% of the norm of Vloc inside     18.722 Ry
VLOCAL1: 99.9% of the norm of Vloc inside     42.668 Ry
atom: Maximum radius for 4*pi*r*r*local-pseudopot. charge    1.83678
atom: Maximum radius for r*vlocal+2*Zval:    1.58088
GHOST: No ghost state for L =  0
GHOST: No ghost state for L =  1
GHOST: No ghost state for L =  2
GHOST: No ghost state for L =  3

KBgen: Kleinman-Bylander projectors: 
   l= 0   rc=  1.769164   el= -1.002383   Ekb=  4.944706   kbcos=  0.320005
   l= 1   rc=  1.769164   el= -0.398438   Ekb= -4.111874   kbcos= -0.367023
   l= 2   rc=  2.107589   el=  0.002326   Ekb= -1.050436   kbcos= -0.009341
   l= 3   rc=  2.358593   el=  0.003420   Ekb= -0.444500   kbcos= -0.001214

KBgen: Total number of  Kleinman-Bylander projectors:   16
atom: -------------------------------------------------------------------------

atom: SANKEY-TYPE ORBITALS:
atom: Selected multiple-zeta basis: split     

SPLIT: Orbitals with angular momentum L= 0

SPLIT: Basis orbitals for state 2s

SPLIT: PAO cut-off radius determined from an
SPLIT: energy shift=  0.020000 Ry

   izeta = 1
                 lambda =    1.000000
                     rc =    4.191849
                 energy =   -0.984359
                kinetic =    0.881234
    potential(screened) =   -1.865594
       potential(ionic) =   -5.477335

   izeta = 2
                 rmatch =    3.431921
              splitnorm =    0.150000
                 energy =   -0.853663
                kinetic =    1.298382
    potential(screened) =   -2.152045
       potential(ionic) =   -5.997528

SPLIT: Orbitals with angular momentum L= 1

SPLIT: Basis orbitals for state 2p

SPLIT: PAO cut-off radius determined from an
SPLIT: energy shift=  0.020000 Ry

   izeta = 1
                 lambda =    1.000000
                     rc =    4.870301
                 energy =   -0.378923
                kinetic =    2.540340
    potential(screened) =   -2.919263
       potential(ionic) =   -6.428536

   izeta = 2
                 rmatch =    3.475094
              splitnorm =    0.150000
                 energy =   -0.214881
                kinetic =    3.815219
    potential(screened) =   -4.030100
       potential(ionic) =   -7.921348

POLgen: Perturbative polarization orbital with L=  2

POLgen: Polarization orbital for state 2p

   izeta = 1
                     rc =    4.870301
                 energy =    1.281120
                kinetic =    2.631157
    potential(screened) =   -1.350037
       potential(ionic) =   -4.295491
atom: Total number of Sankey-type orbitals: 13

atm_pop: Valence configuration (for local Pseudopot. screening):
 2s( 2.00)                                                            
 2p( 2.00)                                                            
Vna: chval, zval:    4.00000   4.00000

Vna:  Cut-off radius for the neutral-atom potential:   4.870301

atom: _________________________________________________________________________

<basis_specs>
===============================================================================
H                    Z=   1    Mass=  1.0100        Charge= 0.17977+309
Lmxo=0 Lmxkb= 2    BasisType=split      Semic=F
L=0  Nsemic=0  Cnfigmx=1
          n=1  nzeta=2  polorb=1
            splnorm:   0.15000    
               vcte:    0.0000    
               rinn:    0.0000    
               qcoe:    0.0000    
               qyuk:    0.0000    
               qwid:   0.10000E-01
                rcs:    0.0000      0.0000    
            lambdas:    1.0000      1.0000    
-------------------------------------------------------------------------------
L=0  Nkbl=1  erefs: 0.17977+309
L=1  Nkbl=1  erefs: 0.17977+309
L=2  Nkbl=1  erefs: 0.17977+309
===============================================================================
</basis_specs>

atom: Called for H                     (Z =   1)

read_vps: Pseudopotential generation method:
read_vps: ATM4.2.7  Troullier-Martins                       
Total valence charge:    1.00000

xc_check: Exchange-correlation functional:
xc_check: Ceperley-Alder
V l=0 = -2*Zval/r beyond r=  1.2977
V l=1 = -2*Zval/r beyond r=  1.2815
V l=2 = -2*Zval/r beyond r=  1.1307
All V_l potentials equal beyond r=  1.2977
This should be close to max(r_c) in ps generation
All pots = -2*Zval/r beyond r=  1.2977

VLOCAL1: 99.0% of the norm of Vloc inside     25.776 Ry
VLOCAL1: 99.9% of the norm of Vloc inside     58.745 Ry
atom: Maximum radius for 4*pi*r*r*local-pseudopot. charge    1.52711
atom: Maximum radius for r*vlocal+2*Zval:    1.28155
GHOST: No ghost state for L =  0
GHOST: No ghost state for L =  1
GHOST: No ghost state for L =  2

KBgen: Kleinman-Bylander projectors: 
   l= 0   rc=  1.452513   el= -0.467311   Ekb= -1.940806   kbcos= -0.353010
   l= 1   rc=  1.752576   el=  0.001430   Ekb= -0.484365   kbcos= -0.024070
   l= 2   rc=  1.774652   el=  0.002365   Ekb= -0.503986   kbcos= -0.001615

KBgen: Total number of  Kleinman-Bylander projectors:    9
atom: -------------------------------------------------------------------------

atom: SANKEY-TYPE ORBITALS:
atom: Selected multiple-zeta basis: split     

SPLIT: Orbitals with angular momentum L= 0

SPLIT: Basis orbitals for state 1s

SPLIT: PAO cut-off radius determined from an
SPLIT: energy shift=  0.020000 Ry

   izeta = 1
                 lambda =    1.000000
                     rc =    4.828263
                 energy =   -0.449360
                kinetic =    0.925772
    potential(screened) =   -1.375132
       potential(ionic) =   -1.911259

   izeta = 2
                 rmatch =    3.854947
              splitnorm =    0.150000
                 energy =   -0.336131
                kinetic =    1.498125
    potential(screened) =   -1.834256
       potential(ionic) =   -2.406171

POLgen: Perturbative polarization orbital with L=  1

POLgen: Polarization orbital for state 1s

   izeta = 1
                     rc =    4.828263
                 energy =    0.707058
                kinetic =    1.398648
    potential(screened) =   -0.691590
       potential(ionic) =   -1.171958
atom: Total number of Sankey-type orbitals:  5

atm_pop: Valence configuration (for local Pseudopot. screening):
 1s( 1.00)                                                            
Vna: chval, zval:    1.00000   1.00000

Vna:  Cut-off radius for the neutral-atom potential:   4.828263

atom: _________________________________________________________________________

<basis_specs>
===============================================================================
N                    Z=   7    Mass=  14.010        Charge= 0.17977+309
Lmxo=1 Lmxkb= 3    BasisType=split      Semic=F
L=0  Nsemic=0  Cnfigmx=2
          n=1  nzeta=2  polorb=0
            splnorm:   0.15000    
               vcte:    0.0000    
               rinn:    0.0000    
               qcoe:    0.0000    
               qyuk:    0.0000    
               qwid:   0.10000E-01
                rcs:    0.0000      0.0000    
            lambdas:    1.0000      1.0000    
L=1  Nsemic=0  Cnfigmx=2
          n=1  nzeta=2  polorb=1
            splnorm:   0.15000    
               vcte:    0.0000    
               rinn:    0.0000    
               qcoe:    0.0000    
               qyuk:    0.0000    
               qwid:   0.10000E-01
                rcs:    0.0000      0.0000    
            lambdas:    1.0000      1.0000    
-------------------------------------------------------------------------------
L=0  Nkbl=1  erefs: 0.17977+309
L=1  Nkbl=1  erefs: 0.17977+309
L=2  Nkbl=1  erefs: 0.17977+309
L=3  Nkbl=1  erefs: 0.17977+309
===============================================================================
</basis_specs>

atom: Called for N                     (Z =   7)

read_vps: Pseudopotential generation method:
read_vps: ATM4.2.7  Troullier-Martins                       
Total valence charge:    5.00000

xc_check: Exchange-correlation functional:
xc_check: Ceperley-Alder
V l=0 = -2*Zval/r beyond r=  1.4606
V l=1 = -2*Zval/r beyond r=  1.4606
V l=2 = -2*Zval/r beyond r=  1.4606
V l=3 = -2*Zval/r beyond r=  1.4606
All V_l potentials equal beyond r=  1.4606
This should be close to max(r_c) in ps generation
All pots = -2*Zval/r beyond r=  1.4606

VLOCAL1: 99.0% of the norm of Vloc inside     20.347 Ry
VLOCAL1: 99.9% of the norm of Vloc inside     46.372 Ry
atom: Maximum radius for 4*pi*r*r*local-pseudopot. charge    1.76189
atom: Maximum radius for r*vlocal+2*Zval:    1.53550
GHOST: No ghost state for L =  0
GHOST: No ghost state for L =  1
GHOST: No ghost state for L =  2
GHOST: No ghost state for L =  3

KBgen: Kleinman-Bylander projectors: 
   l= 0   rc=  1.675947   el= -1.353297   Ekb=  4.892109   kbcos=  0.337655
   l= 1   rc=  1.655124   el= -0.532333   Ekb= -5.549267   kbcos= -0.433001
   l= 2   rc=  2.047085   el=  0.002346   Ekb= -1.340614   kbcos= -0.007544
   l= 3   rc=  2.348881   el=  0.003449   Ekb= -0.558194   kbcos= -0.000959

KBgen: Total number of  Kleinman-Bylander projectors:   16
atom: -------------------------------------------------------------------------

atom: SANKEY-TYPE ORBITALS:
atom: Selected multiple-zeta basis: split     

SPLIT: Orbitals with angular momentum L= 0

SPLIT: Basis orbitals for state 2s

SPLIT: PAO cut-off radius determined from an
SPLIT: energy shift=  0.020000 Ry

   izeta = 1
                 lambda =    1.000000
                     rc =    3.683980
                 energy =   -1.334887
                kinetic =    1.204128
    potential(screened) =   -2.539016
       potential(ionic) =   -8.130297

   izeta = 2
                 rmatch =    2.905100
              splitnorm =    0.150000
                 energy =   -1.140084
                kinetic =    1.810869
    potential(screened) =   -2.950953
       potential(ionic) =   -8.949068

SPLIT: Orbitals with angular momentum L= 1

SPLIT: Basis orbitals for state 2p

SPLIT: PAO cut-off radius determined from an
SPLIT: energy shift=  0.020000 Ry

   izeta = 1
                 lambda =    1.000000
                     rc =    4.280232
                 energy =   -0.512164
                kinetic =    3.599466
    potential(screened) =   -4.111630
       potential(ionic) =   -9.551775

   izeta = 2
                 rmatch =    2.941647
              splitnorm =    0.150000
                 energy =   -0.291934
                kinetic =    5.358713
    potential(screened) =   -5.650647
       potential(ionic) =  -11.695624

POLgen: Perturbative polarization orbital with L=  2

POLgen: Polarization orbital for state 2p

   izeta = 1
                     rc =    4.280232
                 energy =    1.826318
                kinetic =    3.687078
    potential(screened) =   -1.860760
       potential(ionic) =   -6.363680
atom: Total number of Sankey-type orbitals: 13

atm_pop: Valence configuration (for local Pseudopot. screening):
 2s( 2.00)                                                            
 2p( 3.00)                                                            
Vna: chval, zval:    5.00000   5.00000

Vna:  Cut-off radius for the neutral-atom potential:   4.280232

atom: _________________________________________________________________________

<basis_specs>
===============================================================================
O                    Z=   8    Mass=  16.000        Charge= 0.17977+309
Lmxo=1 Lmxkb= 3    BasisType=split      Semic=F
L=0  Nsemic=0  Cnfigmx=2
          n=1  nzeta=2  polorb=0
            splnorm:   0.15000    
               vcte:    0.0000    
               rinn:    0.0000    
               qcoe:    0.0000    
               qyuk:    0.0000    
               qwid:   0.10000E-01
                rcs:    0.0000      0.0000    
            lambdas:    1.0000      1.0000    
L=1  Nsemic=0  Cnfigmx=2
          n=1  nzeta=2  polorb=1
            splnorm:   0.15000    
               vcte:    0.0000    
               rinn:    0.0000    
               qcoe:    0.0000    
               qyuk:    0.0000    
               qwid:   0.10000E-01
                rcs:    0.0000      0.0000    
            lambdas:    1.0000      1.0000    
-------------------------------------------------------------------------------
L=0  Nkbl=1  erefs: 0.17977+309
L=1  Nkbl=1  erefs: 0.17977+309
L=2  Nkbl=1  erefs: 0.17977+309
L=3  Nkbl=1  erefs: 0.17977+309
===============================================================================
</basis_specs>

atom: Called for O                     (Z =   8)

read_vps: Pseudopotential generation method:
read_vps: ATM4.2.7  Troullier-Martins                       
Total valence charge:    6.00000

xc_check: Exchange-correlation functional:
xc_check: Ceperley-Alder
V l=0 = -2*Zval/r beyond r=  1.4482
V l=1 = -2*Zval/r beyond r=  1.4482
V l=2 = -2*Zval/r beyond r=  1.4482
V l=3 = -2*Zval/r beyond r=  1.4482
All V_l potentials equal beyond r=  1.4482
This should be close to max(r_c) in ps generation
All pots = -2*Zval/r beyond r=  1.4482

VLOCAL1: 99.0% of the norm of Vloc inside     20.696 Ry
VLOCAL1: 99.9% of the norm of Vloc inside     47.167 Ry
atom: Maximum radius for 4*pi*r*r*local-pseudopot. charge    1.74697
atom: Maximum radius for r*vlocal+2*Zval:    1.52250
GHOST: No ghost state for L =  0
GHOST: No ghost state for L =  1
GHOST: No ghost state for L =  2
GHOST: No ghost state for L =  3

KBgen: Kleinman-Bylander projectors: 
   l= 0   rc=  1.682657   el= -1.744568   Ekb=  4.448678   kbcos=  0.289593
   l= 1   rc=  1.620715   el= -0.676113   Ekb= -7.152049   kbcos= -0.499084
   l= 2   rc=  2.055271   el=  0.002386   Ekb= -1.611701   kbcos= -0.006652
   l= 3   rc=  2.358267   el=  0.003508   Ekb= -0.656031   kbcos= -0.000879

KBgen: Total number of  Kleinman-Bylander projectors:   16
atom: -------------------------------------------------------------------------

atom: SANKEY-TYPE ORBITALS:
atom: Selected multiple-zeta basis: split     

SPLIT: Orbitals with angular momentum L= 0

SPLIT: Basis orbitals for state 2s

SPLIT: PAO cut-off radius determined from an
SPLIT: energy shift=  0.020000 Ry

   izeta = 1
                 lambda =    1.000000
                     rc =    3.305093
                 energy =   -1.725984
                kinetic =    1.585887
    potential(screened) =   -3.311870
       potential(ionic) =  -11.297253

   izeta = 2
                 rmatch =    2.510382
              splitnorm =    0.150000
                 energy =   -1.479369
                kinetic =    2.381175
    potential(screened) =   -3.860544
       potential(ionic) =  -12.454987

SPLIT: Orbitals with angular momentum L= 1

SPLIT: Basis orbitals for state 2p

SPLIT: PAO cut-off radius determined from an
SPLIT: energy shift=  0.020000 Ry

   izeta = 1
                 lambda =    1.000000
                     rc =    3.937239
                 energy =   -0.658357
                kinetic =    4.694922
    potential(screened) =   -5.353279
       potential(ionic) =  -13.084446

   izeta = 2
                 rmatch =    2.541963
              splitnorm =    0.150000
                 energy =   -0.362807
                kinetic =    7.020572
    potential(screened) =   -7.383379
       potential(ionic) =  -16.009048

POLgen: Perturbative polarization orbital with L=  2

POLgen: Polarization orbital for state 2p

   izeta = 1
                     rc =    3.937239
                 energy =    2.394886
                kinetic =    4.807985
    potential(screened) =   -2.413099
       potential(ionic) =   -8.736318
atom: Total number of Sankey-type orbitals: 13

atm_pop: Valence configuration (for local Pseudopot. screening):
 2s( 2.00)                                                            
 2p( 4.00)                                                            
Vna: chval, zval:    6.00000   6.00000

Vna:  Cut-off radius for the neutral-atom potential:   3.937239

atom: _________________________________________________________________________

prinput: Basis input ----------------------------------------------------------

PAO.BasisType split     

%block ChemicalSpeciesLabel
    1   79 Au                      # Species index, atomic number, species label
    2    6 C                       # Species index, atomic number, species label
    3    1 H                       # Species index, atomic number, species label
    4    7 N                       # Species index, atomic number, species label
    5    8 O                       # Species index, atomic number, species label
%endblock ChemicalSpeciesLabel

%block PAO.Basis                 # Define Basis set
Au                    2                    # Species label, number of l-shells
 n=6   0   1                         # n, l, Nzeta 
   6.083   
   1.000   
 n=5   2   1                         # n, l, Nzeta 
   4.287   
   1.000   
C                     2                    # Species label, number of l-shells
 n=2   0   2                         # n, l, Nzeta 
   4.192      3.432   
   1.000      1.000   
 n=2   1   2 P   1                   # n, l, Nzeta, Polarization, NzetaPol
   4.870      3.475   
   1.000      1.000   
H                     1                    # Species label, number of l-shells
 n=1   0   2 P   1                   # n, l, Nzeta, Polarization, NzetaPol
   4.828      3.855   
   1.000      1.000   
N                     2                    # Species label, number of l-shells
 n=2   0   2                         # n, l, Nzeta 
   3.684      2.905   
   1.000      1.000   
 n=2   1   2 P   1                   # n, l, Nzeta, Polarization, NzetaPol
   4.280      2.942   
   1.000      1.000   
O                     2                    # Species label, number of l-shells
 n=2   0   2                         # n, l, Nzeta 
   3.305      2.510   
   1.000      1.000   
 n=2   1   2 P   1                   # n, l, Nzeta, Polarization, NzetaPol
   3.937      2.542   
   1.000      1.000   
%endblock PAO.Basis

prinput: ----------------------------------------------------------------------

coor:   Atomic-coordinates input format  =     Cartesian coordinates
coor:                                          (in units of alat)

siesta: WARNING: XV file not found

siesta: Atomic coordinates (Bohr) and species
siesta:      2.71925   2.71925   0.00000  1        1
siesta:      2.71925   8.15774   0.00000  1        2
siesta:      8.15774   2.71925   0.00000  1        3
siesta:      8.15774   8.15774   0.00000  1        4
siesta:      0.00000   5.43849   3.84559  1        5
siesta:      5.43849   0.00000   3.84559  1        6
siesta:      5.43849   5.43849   3.84559  1        7
siesta:      5.43849  10.87698   3.84559  1        8
siesta:     10.87698   5.43849   3.84559  1        9
siesta:      2.71925   2.71925   7.69119  1       10
siesta:      2.71925   8.15774   7.69119  1       11
siesta:      8.15774   2.71925   7.69119  1       12
siesta:      8.15774   8.15774   7.69119  1       13
siesta:      0.00000   5.43849  11.53678  1       14
siesta:      5.43849   0.00000  11.53678  1       15
siesta:      5.43849   5.43849  11.53678  1       16
siesta:      5.43849  10.87698  11.53678  1       17
siesta:     10.87698   5.43849  11.53678  1       18
siesta:      2.71925   2.71925  15.38238  1       19
siesta:      2.71925   8.15774  15.38238  1       20
siesta:      8.15774   2.71925  15.38238  1       21
siesta:      8.15774   8.15774  15.38238  1       22
siesta:      0.00000   5.43849  19.22797  1       23
siesta:      5.43849   0.00000  19.22797  1       24
siesta:      5.43849   5.43849  19.22797  1       25
siesta:      5.43849  10.87698  19.22797  1       26
siesta:     10.87698   5.43849  19.22797  1       27
siesta:      2.71925   2.71925  23.07357  1       28
siesta:      2.71925   8.15774  23.07357  1       29
siesta:      8.15774   2.71925  23.07357  1       30
siesta:      8.15774   8.15774  23.07357  1       31
siesta:      0.00000   5.43849  26.91916  1       32
siesta:      5.43849   0.00000  26.91916  1       33
siesta:      5.43849   5.43849  26.91916  1       34
siesta:      5.43849  10.87698  26.91916  1       35
siesta:     10.87698   5.43849  26.91916  1       36
siesta:      2.71925   2.71925  30.76475  1       37
siesta:      2.71925   8.15774  30.76475  1       38
siesta:      8.15774   2.71925  30.76475  1       39
siesta:      8.15774   8.15774  30.76475  1       40
siesta:      0.00000   5.43849  34.61035  1       41
siesta:      5.43849   0.00000  34.61035  1       42
siesta:      5.43849   5.43849  34.61035  1       43
siesta:      5.43849  10.87698  34.61035  1       44
siesta:     10.87698   5.43849  34.61035  1       45
siesta:      2.71925   2.71925  38.45594  1       46
siesta:      2.71925   8.15774  38.45594  1       47
siesta:      8.15774   2.71925  38.45594  1       48
siesta:      8.15774   8.15774  38.45594  1       49
siesta:      0.00000   5.43849  42.30154  1       50
siesta:      5.43849   0.00000  42.30154  1       51
siesta:      5.43849   5.43849  42.30154  1       52
siesta:      5.43849  10.87698  42.30154  1       53
siesta:     10.87698   5.43849  42.30154  1       54
siesta:      2.71925   2.71925  46.14713  1       55
siesta:      2.71925   8.15774  46.14713  1       56
siesta:      8.15774   2.71925  46.14713  1       57
siesta:      8.15774   8.15774  46.14713  1       58
siesta:      5.43849   5.43849  49.99272  1       59
siesta:      5.52335   3.10618  58.73381  4       60
siesta:      5.43849   5.43849  55.43121  1       61
siesta:      6.70332   4.13192  61.00732  2       62
siesta:      8.43909   3.07867  61.41169  3       63
siesta:      5.06541   3.76421  63.36980  2       64
siesta:      6.09182   3.62460  65.47821  5       65
siesta:      7.33859   6.93596  60.64219  2       66
siesta:      8.21279   7.67840  62.35959  3       67
siesta:      8.67475   7.16598  59.08046  3       68
siesta:      5.63755   8.04138  60.23521  3       69
siesta:      2.54926   3.63694  63.03810  4       70
siesta:      1.87562   3.74669  61.24856  3       71
siesta:      0.77462   3.21269  65.10555  2       72
siesta:      1.02539   4.69670  66.52340  3       73
siesta:      1.26037   0.72245  66.52922  2       74
siesta:      0.56332   0.50391  68.74968  5       75
siesta:     -1.94675   3.29847  64.11491  2       76
siesta:     -3.25942   2.99732  65.67998  3       77
siesta:     -2.34400   5.14425  63.27162  3       78
siesta:     -2.27042   1.82897  62.69415  3       79
siesta:      2.43128  -1.16746  65.26619  4       80
siesta:      3.09221  -0.89469  63.47559  3       81
siesta:      3.04129  -3.53616  66.53384  2       82
siesta:      1.32042  -4.27162  67.41608  3       83
siesta:      4.89290  -3.17366  68.74898  2       84
siesta:      5.03051  -4.80288  70.43850  5       85
siesta:      4.06285  -5.47560  64.63816  2       86
siesta:      4.54802  -7.22468  65.62315  3       87
siesta:      2.62589  -5.89951  63.21392  3       88
siesta:      5.74741  -4.76048  63.67692  3       89
siesta:      6.34353  -1.09043  68.72167  4       90
siesta:      6.14885   0.13687  67.25346  3       91
siesta:      7.91295  -0.29054  70.84672  2       92
siesta:      8.04513  -1.89163  72.13469  3       93
siesta:      6.66244   1.86113  72.37866  2       94
siesta:      6.53232   1.74457  74.71072  5       95
siesta:     10.55599   0.49267  69.94051  2       96
siesta:     11.68552   1.17921  71.53126  3       97
siesta:     11.51949  -1.13176  69.09966  3       98
siesta:     10.44053   1.99494  68.52190  3       99
siesta:      5.84079   3.89725  71.06127  4      100
siesta:      5.94946   3.91642  69.13920  3      101
siesta:      5.18362   6.25596  72.33329  2      102
siesta:      6.63333   6.63996  73.75997  3      103
siesta:      2.71075   6.17889  73.85728  2      104
siesta:      2.36246   7.76685  75.52642  5      105
siesta:      5.12908   8.44549  70.43526  2      106
siesta:      4.68577  10.19959  71.43013  3      107
siesta:      6.97152   8.65117  69.51945  3      108
siesta:      3.69601   8.14468  68.97302  3      109
siesta:      1.00784   4.35000  73.28380  4      110
siesta:      1.32282   3.14467  71.81629  3      111
siesta:     -1.32594   4.08787  74.71995  2      112
siesta:     -1.85052   5.97908  75.37406  3      113
siesta:     -1.03526   2.51105  77.16130  2      114
siesta:     -2.88256   2.18454  78.54576  5      115
siesta:     -3.45830   3.01598  73.07951  2      116
siesta:     -5.15750   2.79447  74.22904  3      117
siesta:     -3.86743   4.30344  71.51434  3      118
siesta:     -2.93913   1.17791  72.28772  3      119
siesta:      1.28571   1.54698  77.65517  4      120
siesta:      2.74926   1.91802  76.46599  3      121
siesta:      1.80071   0.00272  79.86060  2      122
siesta:     -0.04105  -0.38011  80.73368  3      123
siesta:      3.34061   1.38165  81.88728  2      124
siesta:      3.31637   3.90988  81.62019  5      125
siesta:      3.07676  -2.50446  79.10968  2      126
siesta:      4.78344  -2.05309  78.01876  3      127
siesta:      3.69090  -3.47640  80.82722  3      128
siesta:      1.32027  -4.19048  77.53618  2      129
siesta:     -0.13138  -5.03069  78.75773  3      130
siesta:      0.32412  -3.01455  76.14902  3      131
siesta:      2.76173  -6.25095  76.09422  2      132
siesta:      4.24155  -5.34283  74.96572  3      133
siesta:      3.69658  -7.55939  77.40298  3      134
siesta:      1.01648  -7.71134  74.31539  2      135
siesta:     -0.07712  -9.16936  75.28054  3      136
siesta:     -0.28759  -6.44460  73.33821  3      137
siesta:      2.52449  -8.98366  72.25926  4      138
siesta:      1.38810  -9.99119  71.05989  3      139
siesta:      3.48410  -7.59412  71.21593  3      140
siesta:      3.82876 -10.21700  72.98435  3      141
siesta:      4.42319   0.31601  83.60888  5      142
siesta:      5.17202   1.23458  58.55562  3      143
siesta:      5.43849   5.43849  84.70467  1      144
siesta:      5.43849   5.43849  90.14315  1      145
siesta:      8.15774   8.15774  93.98875  1      146
siesta:      8.15774   2.71925  93.98875  1      147
siesta:      2.71925   8.15774  93.98875  1      148
siesta:      2.71925   2.71925  93.98875  1      149
siesta:     10.87698   5.43849  97.83434  1      150
siesta:      5.43849  10.87698  97.83434  1      151
siesta:      5.43849   5.43849  97.83434  1      152
siesta:      5.43849   0.00000  97.83434  1      153
siesta:      0.00000   5.43849  97.83434  1      154
siesta:      8.15774   8.15774 101.67994  1      155
siesta:      8.15774   2.71925 101.67994  1      156
siesta:      2.71925   8.15774 101.67994  1      157
siesta:      2.71925   2.71925 101.67994  1      158
siesta:     10.87698   5.43849 105.52553  1      159
siesta:      5.43849  10.87698 105.52553  1      160
siesta:      5.43849   5.43849 105.52553  1      161
siesta:      5.43849   0.00000 105.52553  1      162
siesta:      0.00000   5.43849 105.52553  1      163
siesta:      8.15774   8.15774 109.37112  1      164
siesta:      8.15774   2.71925 109.37112  1      165
siesta:      2.71925   8.15774 109.37112  1      166
siesta:      2.71925   2.71925 109.37112  1      167
siesta:     10.87698   5.43849 113.21672  1      168
siesta:      5.43849  10.87698 113.21672  1      169
siesta:      5.43849   5.43849 113.21672  1      170
siesta:      5.43849   0.00000 113.21672  1      171
siesta:      0.00000   5.43849 113.21672  1      172
siesta:      8.15774   8.15774 117.06231  1      173
siesta:      8.15774   2.71925 117.06231  1      174
siesta:      2.71925   8.15774 117.06231  1      175
siesta:      2.71925   2.71925 117.06231  1      176
siesta:     10.87698   5.43849 120.90791  1      177
siesta:      5.43849  10.87698 120.90791  1      178
siesta:      5.43849   5.43849 120.90791  1      179
siesta:      5.43849   0.00000 120.90791  1      180
siesta:      0.00000   5.43849 120.90791  1      181
siesta:      8.15774   8.15774 124.75350  1      182
siesta:      8.15774   2.71925 124.75350  1      183
siesta:      2.71925   8.15774 124.75350  1      184
siesta:      2.71925   2.71925 124.75350  1      185
siesta:     10.87698   5.43849 128.59909  1      186
siesta:      5.43849  10.87698 128.59909  1      187
siesta:      5.43849   5.43849 128.59909  1      188
siesta:      5.43849   0.00000 128.59909  1      189
siesta:      0.00000   5.43849 128.59909  1      190
siesta:      8.15774   8.15774 132.44469  1      191
siesta:      8.15774   2.71925 132.44469  1      192
siesta:      2.71925   8.15774 132.44469  1      193
siesta:      2.71925   2.71925 132.44469  1      194
siesta:     10.87698   5.43849 136.29028  1      195
siesta:      5.43849  10.87698 136.29028  1      196
siesta:      5.43849   5.43849 136.29028  1      197
siesta:      5.43849   0.00000 136.29028  1      198
siesta:      0.00000   5.43849 136.29028  1      199
siesta:      8.15774   8.15774 140.13588  1      200
siesta:      8.15774   2.71925 140.13588  1      201
siesta:      2.71925   8.15774 140.13588  1      202
siesta:      2.71925   2.71925 140.13588  1      203

siesta: System type = chain     

initatomlists: Number of atoms, orbitals, and projectors:    203  1455  2107

coxmol: Writing XMOL coordinates into file em.xyz                                                              

siesta: ******************** Simulation parameters ****************************
siesta:
siesta: The following are some of the parameters of the simulation.
siesta: A complete list of the parameters used, including default values,
siesta: can be found in file out.fdf
siesta:
redata: Spin configuration                          = spin-orbit
redata: Number of spin components                   = 8
redata: Time-Reversal Symmetry                      = F
redata: Spin-spiral                                 = F
############################################################
#              Spin-orbit coupling is in beta              #
#           Several options may not be compatible          #
############################################################
redata: Long output                                 =   F
redata: Number of Atomic Species                    =        5
redata: Charge density info will appear in .RHO file
redata: Write Mulliken Pop.                         = Atomic and Orbital charges
redata: Mesh Cutoff                                 =   350.0000 Ry
redata: Net charge of the system                    =     1.0000 |e|
redata: Min. number of SCF Iter                     =        0
redata: Max. number of SCF Iter                     =      300
redata: SCF mix quantity                            = Hamiltonian
redata: Mix DM or H after convergence               =   F
redata: Recompute H after scf cycle                 =   F
redata: Mix DM in first SCF step                    =   T
redata: Write Pulay info on disk                    =   F
redata: New DM Mixing Weight                        =     0.0300
redata: New DM Occupancy tolerance                  = 0.000000000001
redata: No kicks to SCF
redata: DM Mixing Weight for Kicks                  =     0.5000
redata: Require Harris convergence for SCF          =   F
redata: Harris energy tolerance for SCF             =     0.000100 eV
redata: Require DM convergence for SCF              =   T
redata: DM tolerance for SCF                        =     0.0001
redata: Require EDM convergence for SCF             =   F
redata: EDM tolerance for SCF                       =     0.001000 eV
redata: Require H convergence for SCF               =   T
redata: Hamiltonian tolerance for SCF               =     0.001000 eV
redata: Require (free) Energy convergence for SCF   =   F
redata: (free) Energy tolerance for SCF             =     0.000100 eV
redata: Using Saved Data (generic)                  =   F
redata: Use continuation files for DM               =   T
redata: Neglect nonoverlap interactions             =   F
redata: Method of Calculation                       = Diagonalization
redata: Divide and Conquer                          =   F
redata: Electronic Temperature                      =   299.9869 K
redata: Fix the spin of the system                  =   F
redata: Dynamics option                             = Single-point calculation
mix.SCF: Pulay mixing                            = Pulay
mix.SCF:    Variant                              = stable
mix.SCF:    History steps                        = 5
mix.SCF:    Linear mixing weight                 =     0.030000
mix.SCF:    Mixing weight                        =     0.030000
mix.SCF:    SVD condition                        = 0.1000E-07
mix.SCF: Spin-component mixing                   all
redata: ***********************************************************************

%block SCF.Mixers
  Pulay
%endblock SCF.Mixers

%block SCF.Mixer.Pulay
  # Mixing method
  method pulay
  variant stable

  # Mixing options
  weight 0.0300
  weight.linear 0.0300
  history 5
%endblock SCF.Mixer.Pulay

DM_history_depth set to one: no extrapolation allowed by default for geometry relaxation
Size of DM history Fstack: 1
Total number of electrons:  1546.000000
Total ionic charge:  1547.000000
madelung: WARNING: Charged system, but not an atom or molecule.
madelung: WARNING: Energy correction terms can not be applied. 
madelung: WARNING: Continue only if you really know what you are doing.

Time-reversal symmetry not used.

siesta: k-grid: Number of k-points =    27
siesta: k-grid: Cutoff (effective) =    45.000 Ang
siesta: k-grid: Supercell and displacements
siesta: k-grid:    3   0   0      0.000
siesta: k-grid:    0   3   0      0.000
siesta: k-grid:    0   0   3      0.000

superc: Internal auxiliary supercell:     1 x     1 x     3  =       3
superc: Number of atoms, orbitals, and projectors:    609   4365   6321


                     ====================================
                        Single-point calculation
                     ====================================

superc: Internal auxiliary supercell:     1 x     1 x     3  =       3
superc: Number of atoms, orbitals, and projectors:    609   4365   6321

outcell: Unit cell vectors (Ang):
       30.000000    0.000000    0.000000
        0.000000   30.000000    0.000000
        0.000000    0.000000   80.471707

outcell: Cell vector modules (Ang)   :   30.000000   30.000000   80.471707
outcell: Cell angles (23,13,12) (deg):     90.0000     90.0000     90.0000
outcell: Cell volume (Ang**3)        :  72424.5362
<dSpData1D:S at geom step 0
  <sparsity:sparsity for geom step 0
    nrows_g=1455 nrows=1455 sparsity=.1664 nnzs=352337, refcount: 8>
  <dData1D:(new from dSpData1D) n=352337, refcount: 1>
refcount: 1>
new_DM -- step:     1
Initializing Density Matrix...

Attempting to read DM from file... Succeeded by increasing spin-components...
DM from file:
<dSpData2D:IO-DM: em.DM
  <sparsity:IO-DM: em.DM
    nrows_g=1455 nrows=1455 sparsity=.1542 nnzs=326515, refcount: 1>
  <dData2D:(new from dSpData2D) n=326515 m=2, refcount: 1>
refcount: 1>

initDM: Initial spin polarization (x,y,z) =    0.000000    0.000000   -0.036142

No. of atoms with KB's overlaping orbs in proc 0. Max # of overlaps:     203     199
New grid distribution:   1
           1       1:  180    1:  180    1:  480

InitMesh: MESH =   360 x   360 x   960 =   124416000
InitMesh: (bp) =   180 x   180 x   480 =    15552000
InitMesh: Mesh cutoff (required, used) =   350.000   393.331 Ry
ExtMesh (bp) on 0 =   260 x   260 x   560 =    37856000
PhiOnMesh: Number of (b)points on node 0 =             15552000
PhiOnMesh: nlist on node 0 =             19400921

stepf: Fermi-Dirac step function

siesta: Program's energy decomposition (eV):
siesta: Ebs     =    -14822.773252
siesta: Eions   =    132631.767549
siesta: Ena     =      3606.305403
siesta: Ekin    =     84371.395563
siesta: Enl     =    -52763.011484
siesta: Eso     =       -20.198542
siesta: Eldau   =         0.000000
siesta: DEna    =         4.968961
siesta: DUscf   =       203.028524
siesta: DUext   =         0.000000
siesta: Exc     =    -19905.828492
siesta: eta*DQ  =         0.000000
siesta: Emadel  =         0.000000
siesta: Emeta   =         0.000000
siesta: Emolmec =         0.000000
siesta: Ekinion =         0.000000
siesta: Eharris =   -116856.860482
siesta: Etot    =   -117135.107616
siesta: FreeEng =   -117135.378926

        iscf     Eharris(eV)        E_KS(eV)     FreeEng(eV)     dDmax    Ef(eV) dHmax(eV)
   scf:    1  -116856.860482  -117135.107616  -117135.378926  0.402329 -1.883087 31.881080
timer: Routine,Calls,Time,% = IterSCF        1    4294.871  99.06
   scf:    2   -44189.939384   -93523.998150   -93524.056050  1.038116  6.858122440.588979
   scf:    3  -118953.402473  -117201.634022  -117201.761087  1.006667 -2.134790 20.670902
   scf:    4  -117277.904242  -117270.165805  -117270.431395  0.181385 -2.076449  9.439653
   scf:    5  -117255.738486  -117271.311618  -117271.541787  0.052480 -2.077700  7.156774
   scf:    6  -117279.631046  -117278.640760  -117278.884315  0.035666 -2.093938  3.009250
   scf:    7  -117279.496718  -117279.187681  -117279.422848  0.008069 -2.122675  2.198632
   scf:    8  -117280.061471  -117279.709380  -117279.934215  0.016161 -2.182464  1.748299
   scf:    9  -117280.694853  -117280.400211  -117280.602508  0.036691 -2.346560  1.014894
   scf:   10  -117280.570862  -117280.546308  -117280.735717  0.019722 -2.438725  1.089421
   scf:   11  -117280.718567  -117280.647942  -117280.833888  0.006126 -2.461475  0.800623
   scf:   12  -117280.774044  -117280.728216  -117280.909596  0.007235 -2.491612  0.666154
   scf:   13  -117280.773003  -117280.754623  -117280.934273  0.002414 -2.498966  0.409131
   scf:   14  -117280.846449  -117280.812842  -117280.986646  0.006461 -2.532873  0.267568
   scf:   15  -117280.839292  -117280.827102  -117280.999700  0.002070 -2.542855  0.248095
   scf:   16  -117280.870625  -117280.854441  -117281.024591  0.006357 -2.578466  0.132400
   scf:   17  -117280.859799  -117280.857737  -117281.026566  0.002459 -2.592439  0.093078
   scf:   18  -117280.860067  -117280.859358  -117281.027650  0.000739 -2.596080  0.088937
   scf:   19  -117280.861400  -117280.860462  -117281.028108  0.000685 -2.599802  0.081802
   scf:   20  -117280.862324  -117280.861470  -117281.028508  0.000548 -2.602448  0.070773
   scf:   21  -117280.862369  -117280.862180  -117281.029380  0.001052 -2.597376  0.043002
   scf:   22  -117280.862505  -117280.862372  -117281.029485  0.000250 -2.597234  0.036529
   scf:   23  -117280.861500  -117280.862009  -117281.029797  0.000924 -2.594105  0.033016
   scf:   24  -117280.861653  -117280.861863  -117281.029912  0.000338 -2.593795  0.029898
   scf:   25  -117280.861786  -117280.861846  -117281.029988  0.000197 -2.593959  0.029464
   scf:   26  -117280.861812  -117280.861835  -117281.030049  0.000127 -2.594142  0.022850
   scf:   27  -117280.861453  -117280.861660  -117281.030113  0.000314 -2.593639  0.014459
   scf:   28  -117280.861428  -117280.861554  -117281.030158  0.000338 -2.592195  0.006344
   scf:   29  -117280.861467  -117280.861511  -117281.030163  0.000082 -2.591964  0.005185
   scf:   30  -117280.861512  -117280.861516  -117281.030171  0.000114 -2.591402  0.004181
   scf:   31  -117280.861488  -117280.861502  -117281.030172  0.000021 -2.591306  0.003538
   scf:   32  -117280.861482  -117280.861492  -117281.030172  0.000014 -2.591273  0.003026
   scf:   33  -117280.861432  -117280.861462  -117281.030174  0.000041 -2.591219  0.002050
   scf:   34  -117280.861420  -117280.861441  -117281.030175  0.000022 -2.591140  0.001746
   scf:   35  -117280.861414  -117280.861428  -117281.030176  0.000013 -2.591055  0.000975

SCF Convergence by DM+H criterion
max |DM_out - DM_in|         :     0.0000131689
max |H_out - H_in|      (eV) :     0.0009751134
SCF cycle converged after 35 iterations

Using DM_out to compute the final energy and forces
No. of atoms with KB's overlaping orbs in proc 0. Max # of overlaps:     203     199

siesta: E_KS(eV) =          -117280.8614

siesta: E_KS - E_eggbox =   -117280.8614
siesta: Total spin polarization (x,y,z) =     0.000005    0.000001   -0.000582
siesta: S , {S} =     0.000582    0.000005    0.000001   -0.000582

siesta: Atomic forces (eV/Ang):
----------------------------------------
   Tot   -0.024985    0.036410   -0.015763
----------------------------------------
   Max    3.124256
   Res    0.516846    sqrt( Sum f_i^2 / 3N )
----------------------------------------
   Max    3.124256    constrained

Stress-tensor-Voigt (kbar):        0.78        0.94        1.99        0.06        0.08       -0.00
(Free)E + p*V (eV/cell)  -117336.9727
Target enthalpy (eV/cell)  -117281.0302

moments: Atomic and Orbital Populations and Magnetic Moments:

Species: Au                  

Atom    Orb           Charge    sqrt(<S>^2)        <(Sx,Sy,Sz)>     sqrt(<L>^2)      <(Lx,Ly,Lz)>
----------------------------------------------------------------------------------------------------
   1    1  6s         1.2969                  -0.000 -0.000 -0.000               0.000  0.000  0.000
   1    2  5dxy       1.9583                   0.000  0.000 -0.000              -0.000  0.000 -0.000
   1    3  5dyz       1.9348                  -0.000  0.001 -0.000              -0.000  0.000 -0.000
   1    4  5dz2       1.9663                  -0.000 -0.000 -0.000              -0.000 -0.000  0.000
   1    5  5dxz       1.9344                   0.001 -0.000 -0.000              -0.000 -0.000 -0.000
   1    6  5dx2-y2    1.9162                  -0.001 -0.001 -0.000               0.000 -0.000 -0.000
----------------------------------------------------------------------------------------------------
   1      Total      11.0069         0.000    -0.000 -0.000 -0.000       0.000  -0.000 -0.000 -0.000

   2    7  6s         1.3002                  -0.000  0.000 -0.000               0.000  0.000  0.000
   2    8  5dxy       1.9577                   0.000 -0.000 -0.000               0.000  0.000 -0.000
   2    9  5dyz       1.9342                  -0.000 -0.001  0.000              -0.000  0.000 -0.000
   2   10  5dz2       1.9664                  -0.000  0.000 -0.000              -0.000  0.000  0.000
   2   11  5dxz       1.9344                   0.001  0.000  0.000               0.000  0.000 -0.000
   2   12  5dx2-y2    1.9157                  -0.001  0.001 -0.000              -0.000 -0.000 -0.000
----------------------------------------------------------------------------------------------------
   2      Total      11.0086         0.000    -0.000  0.000 -0.000       0.000  -0.000  0.000 -0.000

   3   13  6s         1.2962                   0.000 -0.000 -0.000               0.000  0.000  0.000
   3   14  5dxy       1.9584                  -0.000  0.000 -0.000               0.000  0.000 -0.000
   3   15  5dyz       1.9348                   0.000  0.001 -0.000               0.000  0.000 -0.000
   3   16  5dz2       1.9663                   0.000 -0.000 -0.000               0.000 -0.000  0.000
   3   17  5dxz       1.9345                  -0.001 -0.000 -0.000               0.000 -0.000 -0.000
   3   18  5dx2-y2    1.9163                   0.001 -0.001 -0.000              -0.000 -0.000 -0.000
----------------------------------------------------------------------------------------------------
   3      Total      11.0065         0.000     0.000 -0.000 -0.000       0.000   0.000 -0.000 -0.000

   4   19  6s         1.2996                   0.000  0.000 -0.000               0.000  0.000  0.000
   4   20  5dxy       1.9578                  -0.000 -0.000 -0.000              -0.000  0.000 -0.000
   4   21  5dyz       1.9342                   0.000 -0.001  0.000               0.000  0.000 -0.000
   4   22  5dz2       1.9664                   0.000  0.000 -0.000               0.000  0.000  0.000
   4   23  5dxz       1.9345                  -0.001  0.000  0.000              -0.000  0.000 -0.000
   4   24  5dx2-y2    1.9157                   0.001  0.001 -0.000               0.000 -0.000 -0.000
----------------------------------------------------------------------------------------------------
   4      Total      11.0082         0.000     0.000  0.000 -0.000       0.000   0.000  0.000 -0.000

   5   25  6s         1.3450                  -0.000  0.000 -0.000               0.000  0.000  0.000
   5   26  5dxy       1.9591                   0.000 -0.000 -0.000              -0.000 -0.000 -0.000
   5   27  5dyz       1.8603                  -0.000  0.000 -0.000              -0.000 -0.000 -0.000
   5   28  5dz2       1.9636                  -0.000 -0.000 -0.000              -0.000 -0.000  0.000
   5   29  5dxz       1.9663                  -0.000  0.000 -0.000              -0.000 -0.000 -0.000
   5   30  5dx2-y2    1.9416                   0.000  0.000 -0.000               0.000  0.000 -0.000
----------------------------------------------------------------------------------------------------
   5      Total      11.0359         0.000    -0.000  0.000 -0.000       0.000  -0.000 -0.000 -0.000

   6   31  6s         1.3443                  -0.000 -0.000 -0.000               0.000  0.000  0.000
   6   32  5dxy       1.9593                   0.000  0.000 -0.000              -0.000 -0.000 -0.000
   6   33  5dyz       1.9658                  -0.000 -0.000 -0.000              -0.000 -0.000 -0.000
   6   34  5dz2       1.9636                   0.000 -0.000 -0.000              -0.000 -0.000  0.000
   6   35  5dxz       1.8609                  -0.000 -0.000 -0.000              -0.000 -0.000 -0.000
   6   36  5dx2-y2    1.9417                   0.000  0.000 -0.000               0.000  0.000 -0.000
----------------------------------------------------------------------------------------------------
   6      Total      11.0355         0.000    -0.000 -0.000 -0.000       0.000  -0.000 -0.000 -0.000

   7   37  6s         1.1429                  -0.000  0.000  0.000               0.000  0.000  0.000
   7   38  5dxy       1.9434                   0.000 -0.000 -0.000               0.000 -0.000 -0.000
   7   39  5dyz       1.9252                  -0.000  0.000 -0.000              -0.000 -0.000 -0.000
   7   40  5dz2       1.9475                   0.000 -0.000 -0.000              -0.000  0.000  0.000
   7   41  5dxz       1.9257                  -0.000  0.000 -0.000               0.000  0.000 -0.000
   7   42  5dx2-y2    1.9599                  -0.000  0.000 -0.000               0.000  0.000 -0.000
----------------------------------------------------------------------------------------------------
   7      Total      10.8444         0.000     0.000  0.000 -0.000       0.000  -0.000  0.000 -0.000

   8   43  6s         1.3452                  -0.000  0.000 -0.000               0.000  0.000  0.000
   8   44  5dxy       1.9590                   0.000 -0.000 -0.000               0.000  0.000 -0.000
   8   45  5dyz       1.9665                  -0.000  0.000 -0.000              -0.000  0.000 -0.000
   8   46  5dz2       1.9637                   0.000  0.000 -0.000              -0.000  0.000  0.000
   8   47  5dxz       1.8602                  -0.000  0.000 -0.000               0.000  0.000 -0.000
   8   48  5dx2-y2    1.9415                  -0.000 -0.000 -0.000               0.000 -0.000 -0.000
----------------------------------------------------------------------------------------------------
   8      Total      11.0361         0.000     0.000  0.000 -0.000       0.000   0.000  0.000 -0.000

   9   49  6s         1.3448                   0.000  0.000 -0.000               0.000  0.000  0.000
   9   50  5dxy       1.9591                  -0.000 -0.000 -0.000               0.000 -0.000 -0.000
   9   51  5dyz       1.8604                   0.000  0.000 -0.000               0.000 -0.000 -0.000
   9   52  5dz2       1.9636                   0.000 -0.000 -0.000               0.000 -0.000  0.000
   9   53  5dxz       1.9662                   0.000  0.000 -0.000               0.000 -0.000 -0.000
   9   54  5dx2-y2    1.9416                  -0.000  0.000 -0.000              -0.000  0.000 -0.000
----------------------------------------------------------------------------------------------------
   9      Total      11.0357         0.000     0.000  0.000 -0.000       0.000   0.000 -0.000 -0.000

  10   55  6s         1.2962                   0.000  0.000 -0.000               0.000  0.000  0.000
  10   56  5dxy       1.9354                   0.000  0.000 -0.000              -0.000  0.000 -0.000
  10   57  5dyz       1.9056                  -0.000  0.000  0.000               0.000  0.000 -0.000
  10   58  5dz2       1.9705                   0.000  0.000 -0.000               0.000  0.000  0.000
  10   59  5dxz       1.9056                   0.000 -0.000  0.000              -0.000  0.000 -0.000
  10   60  5dx2-y2    1.9473                  -0.000 -0.000 -0.000               0.000  0.000 -0.000
----------------------------------------------------------------------------------------------------
  10      Total      10.9607         0.000     0.000  0.000 -0.000       0.000   0.000  0.000 -0.000

  11   61  6s         1.2943                   0.000 -0.000 -0.000               0.000  0.000  0.000
  11   62  5dxy       1.9357                   0.000 -0.000 -0.000               0.000 -0.000 -0.000
  11   63  5dyz       1.9058                  -0.000 -0.000 -0.000               0.000 -0.000 -0.000
  11   64  5dz2       1.9703                   0.000 -0.000 -0.000               0.000 -0.000  0.000
  11   65  5dxz       1.9058                   0.000  0.000  0.000               0.000 -0.000 -0.000
  11   66  5dx2-y2    1.9474                  -0.000  0.000 -0.000               0.000 -0.000 -0.000
----------------------------------------------------------------------------------------------------
  11      Total      10.9594         0.000     0.000 -0.000 -0.000       0.000   0.000 -0.000 -0.000

  12   67  6s         1.2964                  -0.000  0.000 -0.000               0.000  0.000  0.000
  12   68  5dxy       1.9354                  -0.000  0.000 -0.000               0.000  0.000 -0.000
  12   69  5dyz       1.9056                   0.000  0.000  0.000              -0.000  0.000 -0.000
  12   70  5dz2       1.9706                  -0.000  0.000 -0.000              -0.000  0.000  0.000
  12   71  5dxz       1.9056                  -0.000 -0.000  0.000               0.000  0.000 -0.000
  12   72  5dx2-y2    1.9473                   0.000 -0.000 -0.000              -0.000  0.000 -0.000
----------------------------------------------------------------------------------------------------
  12      Total      10.9608         0.000    -0.000  0.000 -0.000       0.000  -0.000  0.000 -0.000

  13   73  6s         1.2946                  -0.000 -0.000 -0.000               0.000  0.000  0.000
  13   74  5dxy       1.9357                  -0.000 -0.000 -0.000              -0.000 -0.000 -0.000
  13   75  5dyz       1.9057                   0.000 -0.000 -0.000              -0.000 -0.000 -0.000
  13   76  5dz2       1.9703                  -0.000 -0.000 -0.000              -0.000 -0.000  0.000
  13   77  5dxz       1.9058                  -0.000  0.000  0.000              -0.000 -0.000 -0.000
  13   78  5dx2-y2    1.9474                   0.000  0.000 -0.000              -0.000 -0.000 -0.000
----------------------------------------------------------------------------------------------------
  13      Total      10.9596         0.000    -0.000 -0.000 -0.000       0.000  -0.000 -0.000 -0.000

  14   79  6s         1.3521                   0.000 -0.000  0.000               0.000  0.000  0.000
  14   80  5dxy       1.9639                   0.000  0.000 -0.000               0.000 -0.000 -0.000
  14   81  5dyz       1.8636                  -0.000  0.000 -0.000               0.000 -0.000 -0.000
  14   82  5dz2       1.9694                   0.000 -0.000  0.000               0.000 -0.000  0.000
  14   83  5dxz       1.9502                  -0.000  0.000 -0.000               0.000 -0.000 -0.000
  14   84  5dx2-y2    1.9423                  -0.000 -0.000 -0.000              -0.000  0.000 -0.000
----------------------------------------------------------------------------------------------------
  14      Total      11.0415         0.000     0.000  0.000 -0.000       0.000   0.000 -0.000 -0.000

  15   85  6s         1.3506                   0.000  0.000  0.000               0.000  0.000  0.000
  15   86  5dxy       1.9638                  -0.000  0.000 -0.000              -0.000  0.000 -0.000
  15   87  5dyz       1.9520                   0.000 -0.000 -0.000              -0.000  0.000 -0.000
  15   88  5dz2       1.9693                   0.000  0.000  0.000              -0.000  0.000  0.000
  15   89  5dxz       1.8630                  -0.000 -0.000 -0.000              -0.000  0.000 -0.000
  15   90  5dx2-y2    1.9421                   0.000 -0.000 -0.000              -0.000 -0.000 -0.000
----------------------------------------------------------------------------------------------------
  15      Total      11.0407         0.000     0.000  0.000 -0.000       0.000  -0.000  0.000 -0.000

  16   91  6s         1.1474                  -0.000  0.000 -0.000               0.000  0.000  0.000
  16   92  5dxy       1.9591                  -0.000  0.000 -0.000              -0.000 -0.000 -0.000
  16   93  5dyz       1.9309                   0.000  0.000 -0.000              -0.000 -0.000  0.000
  16   94  5dz2       1.9554                   0.000 -0.000  0.000               0.000  0.000  0.000
  16   95  5dxz       1.9312                  -0.000 -0.000 -0.000              -0.000  0.000  0.000
  16   96  5dx2-y2    1.9609                  -0.000  0.000 -0.000              -0.000 -0.000 -0.000
----------------------------------------------------------------------------------------------------
  16      Total      10.8849         0.000     0.000 -0.000 -0.000       0.000  -0.000 -0.000 -0.000

  17   97  6s         1.3531                   0.000 -0.000  0.000               0.000  0.000  0.000
  17   98  5dxy       1.9640                  -0.000 -0.000 -0.000              -0.000 -0.000 -0.000
  17   99  5dyz       1.9489                  -0.000  0.000 -0.000              -0.000 -0.000 -0.000
  17  100  5dz2       1.9694                   0.000 -0.000  0.000              -0.000 -0.000  0.000
  17  101  5dxz       1.8642                  -0.000  0.000 -0.000              -0.000 -0.000 -0.000
  17  102  5dx2-y2    1.9425                   0.000  0.000 -0.000              -0.000  0.000 -0.000
----------------------------------------------------------------------------------------------------
  17      Total      11.0422         0.000    -0.000 -0.000 -0.000       0.000  -0.000 -0.000 -0.000

  18  103  6s         1.3516                  -0.000 -0.000  0.000               0.000  0.000  0.000
  18  104  5dxy       1.9639                  -0.000  0.000 -0.000              -0.000 -0.000 -0.000
  18  105  5dyz       1.8634                   0.000  0.000 -0.000              -0.000 -0.000 -0.000
  18  106  5dz2       1.9693                  -0.000 -0.000  0.000              -0.000 -0.000  0.000
  18  107  5dxz       1.9508                   0.000 -0.000 -0.000              -0.000 -0.000 -0.000
  18  108  5dx2-y2    1.9422                   0.000 -0.000 -0.000               0.000  0.000 -0.000
----------------------------------------------------------------------------------------------------
  18      Total      11.0412         0.000    -0.000 -0.000 -0.000       0.000  -0.000 -0.000 -0.000

  19  109  6s         1.3095                  -0.000 -0.000 -0.000               0.000  0.000  0.000
  19  110  5dxy       1.9352                  -0.000 -0.000 -0.000              -0.000 -0.000 -0.000
  19  111  5dyz       1.9066                   0.000  0.000  0.000               0.000 -0.000 -0.000
  19  112  5dz2       1.9731                  -0.000 -0.000 -0.000               0.000  0.000  0.000
  19  113  5dxz       1.9066                   0.000  0.000  0.000              -0.000  0.000 -0.000
  19  114  5dx2-y2    1.9445                  -0.000 -0.000 -0.000              -0.000  0.000 -0.000
----------------------------------------------------------------------------------------------------
  19      Total      10.9755         0.000    -0.000 -0.000 -0.000       0.000   0.000  0.000 -0.000

  20  115  6s         1.3052                  -0.000  0.000 -0.000               0.000  0.000  0.000
  20  116  5dxy       1.9359                  -0.000  0.000 -0.000              -0.000  0.000 -0.000
  20  117  5dyz       1.9072                   0.000 -0.000  0.000               0.000  0.000 -0.000
  20  118  5dz2       1.9726                  -0.000  0.000 -0.000               0.000 -0.000  0.000
  20  119  5dxz       1.9072                   0.000 -0.000  0.000              -0.000 -0.000 -0.000
  20  120  5dx2-y2    1.9448                  -0.000  0.000 -0.000               0.000  0.000 -0.000
----------------------------------------------------------------------------------------------------
  20      Total      10.9728         0.000    -0.000  0.000 -0.000       0.000   0.000 -0.000 -0.000

  21  121  6s         1.3103                   0.000 -0.000 -0.000               0.000  0.000  0.000
  21  122  5dxy       1.9351                   0.000 -0.000 -0.000               0.000 -0.000 -0.000
  21  123  5dyz       1.9065                  -0.000  0.000  0.000              -0.000 -0.000 -0.000
  21  124  5dz2       1.9731                   0.000 -0.000 -0.000              -0.000  0.000  0.000
  21  125  5dxz       1.9065                  -0.000  0.000  0.000               0.000  0.000 -0.000
  21  126  5dx2-y2    1.9445                   0.000 -0.000 -0.000               0.000 -0.000 -0.000
----------------------------------------------------------------------------------------------------
  21      Total      10.9760         0.000     0.000 -0.000 -0.000       0.000  -0.000  0.000 -0.000

  22  127  6s         1.3060                   0.000  0.000 -0.000               0.000  0.000  0.000
  22  128  5dxy       1.9358                   0.000  0.000 -0.000               0.000  0.000 -0.000
  22  129  5dyz       1.9071                  -0.000 -0.000  0.000              -0.000  0.000 -0.000
  22  130  5dz2       1.9726                   0.000  0.000 -0.000              -0.000 -0.000  0.000
  22  131  5dxz       1.9070                  -0.000 -0.000  0.000               0.000 -0.000 -0.000
  22  132  5dx2-y2    1.9448                   0.000  0.000 -0.000              -0.000  0.000 -0.000
----------------------------------------------------------------------------------------------------
  22      Total      10.9733         0.000     0.000  0.000 -0.000       0.000  -0.000 -0.000 -0.000

  23  133  6s         1.3646                   0.000  0.000 -0.000               0.000  0.000  0.000
  23  134  5dxy       1.9622                   0.000  0.000  0.000              -0.000 -0.000 -0.000
  23  135  5dyz       1.8592                  -0.000 -0.000 -0.000               0.000 -0.000 -0.000
  23  136  5dz2       1.9674                   0.000  0.000 -0.000               0.000  0.000  0.000
  23  137  5dxz       1.9575                  -0.000  0.000 -0.000              -0.000  0.000 -0.000
  23  138  5dx2-y2    1.9396                  -0.000 -0.000  0.000              -0.000 -0.000 -0.000
----------------------------------------------------------------------------------------------------
  23      Total      11.0504         0.000    -0.000  0.000 -0.000       0.000  -0.000  0.000 -0.000

  24  139  6s         1.3640                  -0.000  0.000 -0.000               0.000  0.000  0.000
  24  140  5dxy       1.9621                   0.000  0.000  0.000              -0.000 -0.000 -0.000
  24  141  5dyz       1.9585                   0.000  0.000 -0.000              -0.000 -0.000 -0.000
  24  142  5dz2       1.9674                  -0.000 -0.000 -0.000              -0.000  0.000  0.000
  24  143  5dxz       1.8589                   0.000 -0.000 -0.000              -0.000 -0.000 -0.000
  24  144  5dx2-y2    1.9394                   0.000 -0.000  0.000               0.000 -0.000 -0.000
----------------------------------------------------------------------------------------------------
  24      Total      11.0502         0.000    -0.000 -0.000 -0.000       0.000  -0.000 -0.000 -0.000

  25  145  6s         1.1402                   0.000 -0.000 -0.000               0.000  0.000  0.000
  25  146  5dxy       1.9563                   0.000  0.000  0.000               0.000 -0.000  0.000
  25  147  5dyz       1.9286                   0.000 -0.000 -0.000               0.000 -0.000 -0.000
  25  148  5dz2       1.9510                  -0.000  0.000 -0.000               0.000 -0.000  0.000
  25  149  5dxz       1.9288                   0.000 -0.000 -0.000               0.000 -0.000 -0.000
  25  150  5dx2-y2    1.9694                   0.000 -0.000  0.000               0.000 -0.000  0.000
----------------------------------------------------------------------------------------------------
  25      Total      10.8743         0.000     0.000 -0.000 -0.000       0.000   0.000 -0.000  0.000

  26  151  6s         1.3650                  -0.000 -0.000 -0.000               0.000  0.000  0.000
  26  152  5dxy       1.9622                  -0.000 -0.000  0.000              -0.000  0.000 -0.000
  26  153  5dyz       1.9567                  -0.000  0.000 -0.000              -0.000  0.000 -0.000
  26  154  5dz2       1.9674                  -0.000 -0.000 -0.000              -0.000 -0.000  0.000
  26  155  5dxz       1.8596                   0.000  0.000 -0.000              -0.000 -0.000 -0.000
  26  156  5dx2-y2    1.9397                   0.000  0.000 -0.000               0.000  0.000 -0.000
----------------------------------------------------------------------------------------------------
  26      Total      11.0507         0.000    -0.000  0.000 -0.000       0.000  -0.000 -0.000 -0.000

  27  157  6s         1.3645                  -0.000  0.000 -0.000               0.000  0.000  0.000
  27  158  5dxy       1.9621                  -0.000  0.000  0.000               0.000 -0.000 -0.000
  27  159  5dyz       1.8591                   0.000 -0.000 -0.000              -0.000 -0.000 -0.000
  27  160  5dz2       1.9674                  -0.000  0.000 -0.000              -0.000  0.000  0.000
  27  161  5dxz       1.9577                   0.000  0.000 -0.000               0.000  0.000 -0.000
  27  162  5dx2-y2    1.9395                   0.000 -0.000  0.000               0.000 -0.000 -0.000
----------------------------------------------------------------------------------------------------
  27      Total      11.0504         0.000     0.000  0.000 -0.000       0.000   0.000  0.000 -0.000

  28  163  6s         1.2914                  -0.000 -0.000  0.000               0.000  0.000  0.000
  28  164  5dxy       1.9343                   0.000  0.000  0.000              -0.000 -0.000  0.000
  28  165  5dyz       1.9123                  -0.000 -0.000  0.000              -0.000 -0.000  0.000
  28  166  5dz2       1.9726                   0.000  0.000 -0.000              -0.000 -0.000  0.000
  28  167  5dxz       1.9124                  -0.000 -0.000  0.000              -0.000 -0.000  0.000
  28  168  5dx2-y2    1.9440                   0.000  0.000  0.000               0.000 -0.000  0.000
----------------------------------------------------------------------------------------------------
  28      Total      10.9670         0.000     0.000 -0.000  0.000       0.000  -0.000 -0.000  0.000

  29  169  6s         1.2917                  -0.000  0.000  0.000               0.000  0.000  0.000
  29  170  5dxy       1.9342                   0.000 -0.000  0.000              -0.000  0.000  0.000
  29  171  5dyz       1.9123                  -0.000  0.000  0.000              -0.000  0.000  0.000
  29  172  5dz2       1.9726                   0.000 -0.000  0.000              -0.000  0.000  0.000
  29  173  5dxz       1.9122                  -0.000  0.000  0.000              -0.000  0.000  0.000
  29  174  5dx2-y2    1.9440                   0.000 -0.000  0.000              -0.000 -0.000  0.000
----------------------------------------------------------------------------------------------------
  29      Total      10.9672         0.000     0.000 -0.000  0.000       0.000  -0.000  0.000  0.000

  30  175  6s         1.2911                   0.000 -0.000  0.000               0.000  0.000  0.000
  30  176  5dxy       1.9343                  -0.000  0.000  0.000               0.000 -0.000  0.000
  30  177  5dyz       1.9123                   0.000 -0.000  0.000               0.000 -0.000  0.000
  30  178  5dz2       1.9725                  -0.000  0.000 -0.000               0.000 -0.000  0.000
  30  179  5dxz       1.9124                   0.000 -0.000  0.000               0.000 -0.000  0.000
  30  180  5dx2-y2    1.9441                  -0.000  0.000  0.000               0.000 -0.000  0.000
----------------------------------------------------------------------------------------------------
  30      Total      10.9667         0.000    -0.000 -0.000  0.000       0.000   0.000 -0.000  0.000

  31  181  6s         1.2915                   0.000  0.000  0.000               0.000  0.000  0.000
  31  182  5dxy       1.9342                  -0.000 -0.000  0.000               0.000  0.000  0.000
  31  183  5dyz       1.9124                   0.000  0.000  0.000               0.000  0.000  0.000
  31  184  5dz2       1.9726                  -0.000 -0.000  0.000               0.000  0.000  0.000
  31  185  5dxz       1.9122                   0.000  0.000  0.000               0.000  0.000  0.000
  31  186  5dx2-y2    1.9440                  -0.000 -0.000  0.000               0.000 -0.000  0.000
----------------------------------------------------------------------------------------------------
  31      Total      10.9670         0.000    -0.000 -0.000  0.000       0.000   0.000  0.000  0.000

  32  187  6s         1.3724                   0.000  0.000 -0.000               0.000  0.000  0.000
  32  188  5dxy       1.9625                  -0.000 -0.000 -0.000               0.000 -0.000 -0.000
  32  189  5dyz       1.8596                   0.000 -0.000 -0.000               0.000 -0.000 -0.000
[...]
 115  861  2pz        0.0842                   0.000 -0.000  0.000              -0.000  0.000  0.000
 115  862  2px        0.1146                  -0.000  0.000 -0.000               0.000  0.000  0.000
 115  863  2Pdxy      0.0082                  -0.000 -0.000 -0.000               0.000 -0.000  0.000
 115  864  2Pdyz      0.0047                  -0.000 -0.000  0.000               0.000 -0.000  0.000
 115  865  2Pdz2      0.0072                  -0.000 -0.000  0.000               0.000 -0.000  0.000
 115  866  2Pdxz      0.0108                   0.000  0.000 -0.000               0.000 -0.000  0.000
 115  867  2Pdx2-y    0.0060                  -0.000  0.000 -0.000              -0.000  0.000  0.000
----------------------------------------------------------------------------------------------------
 115      Total       5.9699         0.000     0.000  0.000  0.000       0.000   0.000  0.000 -0.000

 125  945  2s         1.2711                   0.000 -0.000  0.000               0.000  0.000  0.000
 125  946  2s         0.3279                  -0.000  0.000 -0.000               0.000  0.000  0.000
 125  947  2py        1.1672                   0.000 -0.000 -0.000               0.000  0.000  0.000
 125  948  2pz        1.5869                   0.001 -0.000 -0.000               0.000 -0.000  0.000
 125  949  2px        1.6339                  -0.002 -0.001 -0.000               0.000 -0.000  0.000
 125  950  2py        0.1360                  -0.000  0.001 -0.000               0.000  0.000 -0.000
 125  951  2pz       -0.0444                  -0.001 -0.000  0.000               0.000  0.000  0.000
 125  952  2px       -0.0499                   0.001  0.000 -0.000               0.000  0.000 -0.000
 125  953  2Pdxy      0.0087                   0.000  0.000  0.000              -0.000 -0.000  0.000
 125  954  2Pdyz      0.0076                  -0.000  0.000 -0.000               0.000 -0.000 -0.000
 125  955  2Pdz2      0.0068                  -0.000 -0.000  0.000               0.000  0.000  0.000
 125  956  2Pdxz      0.0024                   0.000 -0.000  0.000              -0.000  0.000 -0.000
 125  957  2Pdx2-y    0.0101                   0.000 -0.000  0.000              -0.000  0.000  0.000
----------------------------------------------------------------------------------------------------
 125      Total       6.0642         0.000    -0.000 -0.000 -0.000       0.000   0.000 -0.000  0.000

 142 1078  2s         1.0458                  -0.000 -0.000 -0.000               0.000  0.000  0.000
 142 1079  2s         0.4568                  -0.000  0.000  0.000               0.000  0.000  0.000
 142 1080  2py        1.5482                  -0.000 -0.000  0.000               0.000  0.000 -0.000
 142 1081  2pz        1.2789                  -0.000  0.000  0.000               0.000  0.000  0.000
 142 1082  2px        1.3237                   0.000  0.000  0.000               0.000  0.000 -0.000
 142 1083  2py        0.0669                   0.000  0.000  0.000              -0.000  0.000  0.000
 142 1084  2pz        0.1136                   0.000 -0.000  0.000              -0.000 -0.000  0.000
 142 1085  2px        0.0740                  -0.000 -0.000  0.000               0.000 -0.000  0.000
 142 1086  2Pdxy      0.0055                   0.000 -0.000  0.000               0.000  0.000  0.000
 142 1087  2Pdyz      0.0083                  -0.000 -0.000  0.000               0.000  0.000 -0.000
 142 1088  2Pdz2      0.0111                   0.000 -0.000 -0.000               0.000 -0.000  0.000
 142 1089  2Pdxz      0.0085                  -0.000  0.000  0.000               0.000 -0.000 -0.000
 142 1090  2Pdx2-y    0.0045                  -0.000  0.000  0.000               0.000  0.000  0.000
----------------------------------------------------------------------------------------------------
 142      Total       5.9458         0.000    -0.000 -0.000  0.000       0.000   0.000  0.000 -0.000

----------------------------------------------------------------------------------------------------
 Sum               1546.0000         0.000     0.000  0.000 -0.000       0.000   0.000  0.000 -0.000


coxmol: Writing XMOL coordinates into file em.xyz                                                              

siesta: Program's energy decomposition (eV):
siesta: Ebs     =    -10965.298803
siesta: Eions   =    132631.767549
siesta: Ena     =      3606.305403
siesta: Ekin    =     84753.081489
siesta: Enl     =    -53120.320470
siesta: Eso     =       -16.085571
siesta: Eldau   =         0.000000
siesta: DEna    =        34.625824
siesta: DUscf   =        45.138890
siesta: DUext   =         0.000000
siesta: Exc     =    -19951.839444
siesta: eta*DQ  =         0.000000
siesta: Emadel  =         0.000000
siesta: Emeta   =         0.000000
siesta: Emolmec =         0.000000
siesta: Ekinion =         0.000000
siesta: Eharris =   -117280.861414
siesta: Etot    =   -117280.861428
siesta: FreeEng =   -117281.030176

siesta: Final energy (eV):
siesta:  Band Struct. =  -10965.298803
siesta:       Kinetic =   84753.081489
siesta:       Hartree =  548040.391243
siesta:       Eldau   =       0.000000
siesta:       Eso     =     -16.085571
siesta:    Ext. field =       0.000000
siesta:   Exch.-corr. =  -19951.839444
siesta:  Ion-electron =-1165669.563041
siesta:       Ion-ion =  435563.153895
siesta:       Ekinion =       0.000000
siesta:         Total = -117280.861428
siesta:         Fermi =      -2.591055

siesta: Atomic forces (eV/Ang):
siesta:      1    0.281913    0.288260    0.261183
siesta:      2    0.287917   -0.287592    0.238745
siesta:      3   -0.282514    0.286224    0.264221
siesta:      4   -0.289301   -0.286365    0.243036
siesta:      5    0.589997    0.001865    0.341448
siesta:      6   -0.000757    0.586462    0.323930
siesta:      7    0.003466    0.007265   -0.689415
siesta:      8   -0.000270   -0.590560    0.350560
siesta:      9   -0.590381    0.002359    0.335824
siesta:     10   -0.611509   -0.616227   -0.003428
siesta:     11   -0.615518    0.609817   -0.012113
siesta:     12    0.612474   -0.615693   -0.001117
siesta:     13    0.614191    0.606993   -0.010282
siesta:     14    0.937975    0.003467   -0.067931
siesta:     15   -0.000767    0.950458   -0.076130
siesta:     16    0.005011   -0.006655    0.015965
siesta:     17   -0.000820   -0.928339   -0.063868
siesta:     18   -0.943512    0.003417   -0.069695
siesta:     19   -0.558955   -0.568858    0.035546
siesta:     20   -0.566824    0.558118    0.041041
siesta:     21    0.560851   -0.567580    0.036577
siesta:     22    0.568112    0.556187    0.038682
siesta:     23    0.858785    0.000838   -0.057840
siesta:     24   -0.001471    0.865318   -0.041076
siesta:     25    0.005707   -0.002333    0.028161
siesta:     26   -0.001305   -0.853791   -0.071746
siesta:     27   -0.862607    0.001020   -0.052529
siesta:     28   -0.524047   -0.521038   -0.012528
siesta:     29   -0.521334    0.523359    0.000160
siesta:     30    0.524118   -0.520353   -0.012496
siesta:     31    0.521539    0.522798   -0.001258
siesta:     32    0.839477   -0.004585    0.066972
siesta:     33    0.000932    0.828014    0.079144
siesta:     34    0.001942    0.010212   -0.012889
siesta:     35    0.001171   -0.848138    0.054875
siesta:     36   -0.837945   -0.004349    0.069998
siesta:     37   -0.571274   -0.558053   -0.032011
siesta:     38   -0.561265    0.570939   -0.032444
siesta:     39    0.568895   -0.558711   -0.032273
siesta:     40    0.559092    0.571837   -0.032079
siesta:     41    0.926051   -0.004702    0.028406
siesta:     42    0.000550    0.909419    0.007309
siesta:     43    0.002209    0.013991    0.031427
siesta:     44    0.000400   -0.938512    0.039831
siesta:     45   -0.922352   -0.004864    0.021548
siesta:     46   -0.549367   -0.549425   -0.001525
siesta:     47   -0.543155    0.543004   -0.017664
siesta:     48    0.550260   -0.550985    0.001690
siesta:     49    0.544136    0.544642   -0.013220
siesta:     50    0.555785    0.016259   -0.233381
siesta:     51   -0.001037    0.582184   -0.258475
siesta:     52    0.005718   -0.011923    0.367274
siesta:     53   -0.001722   -0.540711   -0.213164
siesta:     54   -0.566326    0.015539   -0.235622
siesta:     55    0.153324    0.135347   -0.224214
siesta:     56    0.174647   -0.181663   -0.219617
siesta:     57   -0.147729    0.139175   -0.234340
siesta:     58   -0.165698   -0.182006   -0.227700
siesta:     59   -0.025693    0.318971    1.624657
siesta:     60   -0.594267    2.799917    0.684136
siesta:     61    0.117899   -1.411554   -0.685914
siesta:     62   -1.321058   -0.550673   -1.794307
siesta:     63    0.856978   -0.200195    0.615685
siesta:     64    0.525589    0.568233   -0.183529
siesta:     65   -0.277094   -0.543797    0.681676
siesta:     66   -0.136056   -1.020437    0.616328
siesta:     67    0.244257    0.228340    0.627721
siesta:     68    0.120651   -0.140201   -0.635352
siesta:     69   -0.541140    0.057055   -0.369312
siesta:     70   -0.430994   -0.621946    1.334865
siesta:     71    0.274631    0.050014   -1.190830
siesta:     72    0.309884   -0.606258   -1.145779
siesta:     73    0.133043    0.418246    0.658672
siesta:     74   -0.320601    0.738610    0.678257
siesta:     75    0.375405   -0.150682   -0.556793
siesta:     76    1.103176   -0.090886    0.372220
siesta:     77   -0.308815   -0.109264    0.465461
siesta:     78   -0.077622    0.433698   -0.200428
siesta:     79   -0.040903   -0.385359   -0.347960
siesta:     80    0.342403   -0.813895    0.515909
siesta:     81   -0.078085    0.290933   -0.283730
siesta:     82    0.840191    0.728336   -0.628056
siesta:     83   -0.613907   -0.102596    0.453428
siesta:     84    0.114119    0.634753   -0.201193
siesta:     85   -0.457672   -0.708864    0.317475
siesta:     86   -0.502934    0.899903    0.718404
siesta:     87    0.194580   -0.427562    0.273025
siesta:     88   -0.354555   -0.119616   -0.345638
siesta:     89    0.495986    0.188137   -0.181657
siesta:     90   -0.094152   -0.739690    0.883362
siesta:     91   -0.150318    0.744087   -0.667803
siesta:     92   -0.073804    0.748008   -0.902904
siesta:     93   -0.102941   -0.611010    0.545630
siesta:     94   -0.250040    0.112790    0.609334
siesta:     95   -0.175545   -0.125639   -0.760543
siesta:     96   -1.064181   -0.319205    0.292406
siesta:     97    0.202654    0.160794    0.397049
siesta:     98    0.214520   -0.388476   -0.230063
siesta:     99   -0.148897    0.453926   -0.416386
siesta:    100   -0.069881    0.202549    0.648858
siesta:    101    0.001934    0.017372   -0.991756
siesta:    102   -0.599569   -0.383901   -0.815122
siesta:    103    0.354500    0.006268    0.606159
siesta:    104    0.006278    0.625359    0.736046
siesta:    105    0.051873   -0.685770   -0.954044
siesta:    106    0.046639   -0.969794    0.721603
siesta:    107   -0.188835    0.392158    0.374474
siesta:    108    0.447480    0.029506   -0.278254
siesta:    109   -0.391266   -0.149683   -0.399234
siesta:    110   -0.454805   -0.013161    0.521277
siesta:    111    0.119741   -0.451807   -0.546120
siesta:    112    0.515805   -0.854413   -0.484257
siesta:    113    0.043617    0.731100    0.350333
siesta:    114   -0.451355   -0.011847    0.383167
siesta:    115    0.618541   -0.030585   -0.678646
siesta:    116    0.930409    0.415382    0.616527
siesta:    117   -0.384539   -0.104289    0.519581
siesta:    118   -0.059248    0.321481   -0.419005
siesta:    119    0.263234   -0.543025   -0.322159
siesta:    120   -0.338934   -0.652106    0.434906
siesta:    121    0.664078    0.350260   -0.323055
siesta:    122    0.656366    0.232360   -0.733274
siesta:    123   -0.835914    0.037327    0.204309
siesta:    124    0.574455    3.124256    0.411527
siesta:    125    0.098257   -1.759669   -0.169173
siesta:    126   -1.122433    0.326295   -0.393894
siesta:    127    0.545964    0.231718   -0.420864
siesta:    128    0.257093   -0.066495    0.707835
siesta:    129    1.123313   -0.139106    0.107968
siesta:    130   -0.366083   -0.209818    0.287449
siesta:    131   -0.295362    0.516958   -0.417911
siesta:    132   -1.182546    0.117885   -0.136509
siesta:    133    0.465322    0.384026   -0.523294
siesta:    134    0.250941   -0.341011    0.351586
siesta:    135    1.344449    0.146857    0.027824
siesta:    136   -0.352746   -0.411727    0.303712
siesta:    137   -0.369773    0.490686   -0.277771
siesta:    138   -0.660919    0.011661    0.764959
siesta:    139   -0.271497   -0.189279   -0.246059
siesta:    140    0.788121    1.404520   -0.588187
siesta:    141    0.323766   -0.190023    0.278090
siesta:    142   -0.145708   -1.311977   -0.266084
siesta:    143    0.375109   -0.396349   -0.142617
siesta:    144   -0.858688   -0.701380    1.036902
siesta:    145    0.225589    0.197382   -1.383463
siesta:    146   -0.215032   -0.212648    0.179504
siesta:    147   -0.209457    0.178662    0.207002
siesta:    148    0.170325   -0.202359    0.210311
siesta:    149    0.163260    0.166844    0.234137
siesta:    150   -0.521699    0.006918    0.213142
siesta:    151    0.010711   -0.525410    0.216109
siesta:    152   -0.011428   -0.008250   -0.375491
siesta:    153    0.011923    0.559022    0.235019
siesta:    154    0.566059    0.008104    0.238181
siesta:    155    0.527176    0.527722    0.028127
siesta:    156    0.535953   -0.534259    0.011619
siesta:    157   -0.534934    0.535982    0.008460
siesta:    158   -0.543028   -0.541861   -0.000075
siesta:    159   -0.943114   -0.000265   -0.040620
siesta:    160   -0.001286   -0.940438   -0.037699
siesta:    161    0.011871    0.010573   -0.056569
siesta:    162   -0.003158    0.921791   -0.008110
siesta:    163    0.920672   -0.002122   -0.004410
siesta:    164    0.576882    0.574708    0.036021
siesta:    165    0.584798   -0.569551    0.035698
siesta:    166   -0.569648    0.584421    0.035338
siesta:    167   -0.573892   -0.575596    0.035192
siesta:    168   -0.847839   -0.003839   -0.062895
siesta:    169   -0.004731   -0.845570   -0.065503
siesta:    170    0.010342    0.009166    0.023274
siesta:    171   -0.006427    0.830993   -0.079266
siesta:    172    0.829563   -0.005553   -0.081256
siesta:    173    0.524564    0.523934   -0.001220
siesta:    174    0.526286   -0.524141    0.006329
siesta:    175   -0.524239    0.526187    0.008498
siesta:    176   -0.523514   -0.523932    0.015595
siesta:    177   -0.862405    0.001522    0.070525
siesta:    178    0.001745   -0.863386    0.067026
siesta:    179   -0.002198   -0.000747   -0.029569
siesta:    180    0.000536    0.870498    0.041960
siesta:    181    0.871755    0.000291    0.039281
siesta:    182    0.562698    0.564601   -0.044731
siesta:    183    0.560230   -0.575925   -0.039345
siesta:    184   -0.575954    0.560267   -0.038503
siesta:    185   -0.569299   -0.567404   -0.035413
siesta:    186   -0.926843    0.002848    0.063490
siesta:    187    0.003597   -0.929392    0.064091
siesta:    188   -0.006946   -0.004884   -0.010994
siesta:    189    0.003168    0.946476    0.071771
siesta:    190    0.948716    0.002437    0.073340
siesta:    191    0.613573    0.614782    0.014590
siesta:    192    0.611302   -0.620794    0.009101
siesta:    193   -0.620885    0.611988    0.007138
siesta:    194   -0.615662   -0.615062   -0.001003
siesta:    195   -0.597967    0.001191   -0.353623
siesta:    196    0.001615   -0.598274   -0.350772
siesta:    197    0.007631    0.007001    0.691541
siesta:    198    0.001354    0.594839   -0.329321
siesta:    199    0.594206    0.000926   -0.325907
siesta:    200   -0.286604   -0.286951   -0.234676
siesta:    201   -0.277933    0.285404   -0.250926
siesta:    202    0.285185   -0.277259   -0.255725
siesta:    203    0.279095    0.278309   -0.274894
siesta: ----------------------------------------
siesta:    Tot   -0.024985    0.036410   -0.015763

siesta: Stress tensor (static) (eV/Ang**3):
siesta:     0.000489    0.000040   -0.000001
siesta:     0.000040    0.000586    0.000049
siesta:    -0.000001    0.000049    0.001242

siesta: Cell volume =      72424.536210 Ang**3

siesta: Pressure (static):
siesta:                Solid            Molecule  Units
siesta:          -0.00000841         -0.00000007  Ry/Bohr**3
siesta:          -0.00077242         -0.00000676  eV/Ang**3
siesta:          -1.23757417         -0.01083080  kBar
(Free)E+ p_basis*V_orbitals  =     -117233.394296
(Free)Eharris+ p_basis*V_orbitals  =     -117233.394283
siesta: Total spin polarization (x,y,z) =     0.000005    0.000001   -0.000582
siesta: S , {S} =     0.000582    0.000005    0.000001   -0.000582

siesta: Electric dipole (a.u.)  =    0.192696   -6.363577    0.000000
siesta: Electric dipole (Debye) =    0.489784  -16.174611    0.000000

dhscf: Vacuum level (max, mean) =    2.275026    0.053493 eV

timer: Elapsed wall time (sec) =  148474.045
timer: CPU execution times (sec):

Routine            Calls   Time/call    Tot.time        %
siesta                 1  148466.870  148466.870   100.00
Setup                  1       0.268       0.268     0.00
bands                  1       0.000       0.000     0.00
KSV_init               1       0.000       0.000     0.00
IterGeom               1  148434.727  148434.727    99.98
state_init             1       1.450       1.450     0.00
hsparse                1       0.035       0.035     0.00
overlap                1       1.345       1.345     0.00
Setup_H0               1      39.165      39.165     0.03
naefs                  2       0.002       0.003     0.00
MolMec                 2       0.000       0.000     0.00
kinefsm                2       0.714       1.429     0.00
nlefsm                 2       4.187       8.374     0.01
spinorb                2       0.168       0.337     0.00
DHSCF_Init             1      29.630      29.630     0.02
DHSCF1                 1       0.258       0.258     0.00
INITMESH               1       0.000       0.000     0.00
DHSCF2                 1      29.371      29.371     0.02
REMESH                 1       3.886       3.886     0.00
REORD                311       0.201      62.390     0.04
PHION                  1      11.470      11.470     0.01
COMM_BSC             306       0.201      61.473     0.04
POISON                39       8.899     347.079     0.23
fft                   78       3.598     280.629     0.19
IterSCF               35    4237.774  148322.096    99.90
setup_H               36      34.487    1241.541     0.84
DHSCF                 38      34.980    1329.239     0.90
DHSCF3                38      34.005    1292.192     0.87
rhoofd                38       6.769     257.215     0.17
CellXC                38       3.635     138.145     0.09
cellXC                38       3.635     138.145     0.09
vmat                  37       5.475     202.561     0.14
writeHSX              37       0.078       2.879     0.00
compute_dm            35    4202.206  147077.214    99.06
diagon                35    4202.193  147076.764    99.06
cdiag               1890      54.443  102897.782    69.31
cdiag1              1890       4.772    9018.623     6.07
cdiag2              1890      12.478   23582.516    15.88
cdiag3              1890      32.373   61184.662    41.21
cdiag4              1890       4.821    9111.724     6.14
MIXER                 34       0.071       2.408     0.00
PostSCF                1      71.984      71.984     0.05
DHSCF4                 1      37.047      37.047     0.02
dfscf                  1      30.484      30.484     0.02
overfsm                1       0.062       0.062     0.00
state_analysis         1       0.000       0.000     0.00
siesta_move            1       0.000       0.000     0.00
Analysis               1      31.797      31.797     0.02
optical                1       0.000       0.000     0.00
  
>> End of run:  28-JUN-2025   9:19:46
Job completed
