
                           ***********************       
                           *  WELCOME TO SIESTA  *       
                           ***********************       

reinit: Reading from standard input
reinit: Dumped input in INPUT_TMP.44507
************************** Dump of input data file ****************************
SystemName  em
SystemLabel em
==================================================
==================================================
# SPECIES AND BASIS
# Number of species
NumberOfSpecies 5
%block ChemicalSpeciesLabel
  1   79  Au
  2    7  N
  3    6  C
  4    1  H
  5    8  O
%endblock ChemicalSpeciesLabel
%block    PAO.BasisSizes
  Au        SZ
   N        DZP
   C        DZP
   H        DZP
   O        DZP
%endblock PAO.BasisSizes
%block PS.lmax
  Au  2
%endblock PS.lmax
==================================================
==================================================
# K-points
%block kgrid_Monkhorst_Pack
3   0   0   0.0
0   3   0   0.0
0   0   3   0.0
%endblock kgrid_Monkhorst_Pack
T CELL AND ATOMIC POSITIONS
==================================================
==================================================
# UNIT CELL AND ATOMIC POSITIONS
# UNIT CELL
LatticeConstant       1.00 Ang
%block LatticeVectors
30.00000000   0.00000000000   0.0000000000
0.000000000   30.0000000000   0.0000000000
0.000000000   0.00000000000  80.4717069000
%endblock LatticeVectors
# Atomic coordinates
NumberOfAtoms 203
AtomicCoordinatesFormat ScaledCartesian
%block AtomicCoordinatesAndAtomicSpecies < ../em.fdf
==================================================
==================================================
# General variables
#ElectronicTemperature  100 K
MeshCutoff           350. Ry
xc.functional         LDA           # Exchange-correlation functional
xc.authors            CA
SpinPolarized .true.
SpinOrbit	.true.
SolutionMethod diagon
#SolutionMethod Transiesta
NetCharge		1
==================================================
==================================================
# SCF variables
DM.MixSCF1   T
MaxSCFIterations      300           # Maximum number of SCF iter
DM.MixingWeight       0.03          # New DM amount for next SCF cycle
DM.Tolerance          1.d-4         # Tolerance in maximum difference
DM.UseSaveDM          true          # to use continuation files
DM.NumberPulay         5
Diag.DivideAndConquer  no
Diag.ParallelOverK     yes
==================================================
==================================================
# MD variables
MD.FinalTimeStep 1
MD.TypeOfRun CG
MD.NumCGsteps     000
MD.UseSaveXV      .true.
==================================================
==================================================
# Output variables
WriteMullikenPop                1
WriteBands                      .false.
SaveRho                         .false.
SaveDeltaRho                    .false.
SaveHS                          .true.
SaveElectrostaticPotential      True
SaveTotalPotential              no
WriteCoorXmol                   .true.
WriteMDXmol                     .true.
WriteMDhistory                  .false.
WriteEigenvalues                yes
==================================================
==================================================
# Transiesta information
# GF OPTIONS
TS.ComplexContour.Emin    -30.0 eV
TS.ComplexContour.NPoles       10
TS.ComplexContour.NCircle      30
TS.ComplexContour.NLine        10
# BIAS OPTIONS
TS.biasContour.NumPoints       00
# TS OPTIONS
TS.Voltage 0.000000 eV
# TBT OPTIONS
TS.TBT.Emin -5.0 eV
TS.TBT.Emax +5.0 eV
TS.TBT.NPoints 500
TS.TBT.NEigen 3
TS.TBT.Eta        0.000001 Ry
# Write hamiltonian
TS.SaveHS   .true.
# LEFT ELECTRODE
TS.HSFileLeft  ./Au_Elec_ABC.TSHS
#TS.ReplicateA1Left    1
#TS.ReplicateA2Left    1
TS.NumUsedAtomsLeft    9
TS.BufferAtomsLeft     0
# RIGHT ELECTRODE
TS.HSFileRight  ./Au_Elec_ABC.TSHS
#TS.ReplicateA1Right   1
#TS.ReplicateA2Right   1
TS.NumUsedAtomsRight   9
TS.BufferAtomsRight    0
==================================================
==================================================
************************** End of input data file *****************************

reinit: -----------------------------------------------------------------------
reinit: System Name: em
reinit: -----------------------------------------------------------------------
reinit: System Label: em
reinit: -----------------------------------------------------------------------
Siesta Version: siesta-4.1--736
Architecture  : unknown
Compiler flags: gfortran -O2 -fPIC -ftree-vectorize -fallow-argument-mismatch
PP flags      : -DFC_HAVE_ABORT
Libraries     : libsiestaLAPACK.a libsiestaBLAS.a
SERIAL version

* Running in serial mode
>> Start of run:   6-JAN-2024   9:59:03

initatom: Reading input for the pseudopotentials and atomic orbitals ----------
Species number:   1 Atomic number:   79 Label: Au
Species number:   2 Atomic number:    7 Label: N
Species number:   3 Atomic number:    6 Label: C
Species number:   4 Atomic number:    1 Label: H
Species number:   5 Atomic number:    8 Label: O

Ground state valence configuration:   6s01  5d10
Reading pseudopotential information in formatted form from Au.psf

Pseudopotential generated from a relativistic atomic calculation
There are spin-orbit pseudopotentials available
Spin-orbit interaction is not included in this calculation

Valence configuration for pseudopotential generation:
6s( 1.00) rc: 2.60
6p( 0.00) rc: 2.77
5d(10.00) rc: 2.60
5f( 0.00) rc: 2.60
Ground state valence configuration:   2s02  2p03
Reading pseudopotential information in formatted form from N.psf

Pseudopotential generated from a relativistic atomic calculation
There are spin-orbit pseudopotentials available
Spin-orbit interaction is not included in this calculation

Valence configuration for pseudopotential generation:
2s( 2.00) rc: 1.48
2p( 3.00) rc: 1.48
3d( 0.00) rc: 1.48
4f( 0.00) rc: 1.48
Ground state valence configuration:   2s02  2p02
Reading pseudopotential information in formatted form from C.psf

Pseudopotential generated from a relativistic atomic calculation
There are spin-orbit pseudopotentials available
Spin-orbit interaction is not included in this calculation

Valence configuration for pseudopotential generation:
2s( 2.00) rc: 1.54
2p( 2.00) rc: 1.54
3d( 0.00) rc: 1.54
4f( 0.00) rc: 1.54
Ground state valence configuration:   1s01
Reading pseudopotential information in formatted form from H.psf

Pseudopotential generated from a relativistic atomic calculation
There are spin-orbit pseudopotentials available
Spin-orbit interaction is not included in this calculation

Valence configuration for pseudopotential generation:
1s( 1.00) rc: 1.31
2p( 0.00) rc: 1.31
3d( 0.00) rc: 0.37
4f( 0.00) rc: 1.31
Ground state valence configuration:   2s02  2p04
Reading pseudopotential information in formatted form from O.psf

Pseudopotential generated from a relativistic atomic calculation
There are spin-orbit pseudopotentials available
Spin-orbit interaction is not included in this calculation

Valence configuration for pseudopotential generation:
2s( 2.00) rc: 1.47
2p( 4.00) rc: 1.47
3d( 0.00) rc: 1.47
4f( 0.00) rc: 1.47
resizes: Read basis size for species Au = sz                  
resizes: Read basis size for species N = dzp                 
resizes: Read basis size for species C = dzp                 
resizes: Read basis size for species H = dzp                 
resizes: Read basis size for species O = dzp                 
relmxkb: Read Max KB Ang. Momentum=    2 for species Au
For N, standard SIESTA heuristics set lmxkb to 3
 (one more than the basis l, including polarization orbitals).
Use PS.lmax or PS.KBprojectors blocks to override.
For C, standard SIESTA heuristics set lmxkb to 3
 (one more than the basis l, including polarization orbitals).
Use PS.lmax or PS.KBprojectors blocks to override.
For H, standard SIESTA heuristics set lmxkb to 2
 (one more than the basis l, including polarization orbitals).
Use PS.lmax or PS.KBprojectors blocks to override.
For O, standard SIESTA heuristics set lmxkb to 3
 (one more than the basis l, including polarization orbitals).
Use PS.lmax or PS.KBprojectors blocks to override.

<basis_specs>
===============================================================================
Au                   Z=  79    Mass=  196.97        Charge= 0.17977+309
Lmxo=2 Lmxkb= 2    BasisType=split      Semic=F
L=0  Nsemic=0  Cnfigmx=6
          n=1  nzeta=1  polorb=0
            splnorm:   0.15000    
               vcte:    0.0000    
               rinn:    0.0000    
               qcoe:    0.0000    
               qyuk:    0.0000    
               qwid:   0.10000E-01
                rcs:    0.0000    
            lambdas:    1.0000    
L=1  Nsemic=0  Cnfigmx=6
L=2  Nsemic=0  Cnfigmx=5
          n=1  nzeta=1  polorb=0
            splnorm:   0.15000    
               vcte:    0.0000    
               rinn:    0.0000    
               qcoe:    0.0000    
               qyuk:    0.0000    
               qwid:   0.10000E-01
                rcs:    0.0000    
            lambdas:    1.0000    
-------------------------------------------------------------------------------
L=0  Nkbl=1  erefs: 0.17977+309
L=1  Nkbl=1  erefs: 0.17977+309
L=2  Nkbl=1  erefs: 0.17977+309
===============================================================================
</basis_specs>

atom: Called for Au                    (Z =  79)

read_vps: Pseudopotential generation method:
read_vps: ATM4.2.7  Troullier-Martins                       
Total valence charge:   11.00000

xc_check: Exchange-correlation functional:
xc_check: Ceperley-Alder
V l=0 = -2*Zval/r beyond r=  3.7361
V l=1 = -2*Zval/r beyond r=  3.7361
V l=2 = -2*Zval/r beyond r=  3.7361
All V_l potentials equal beyond r=  2.6994
This should be close to max(r_c) in ps generation
All pots = -2*Zval/r beyond r=  3.7361
Using large-core scheme for Vlocal

atom: Estimated core radius    3.73611

atom: Including non-local core corrections could be a good idea
atom: Maximum radius for 4*pi*r*r*local-pseudopot. charge    4.07775
atom: Maximum radius for r*vlocal+2*Zval:    3.78310
GHOST: No ghost state for L =  0
GHOST: No ghost state for L =  1
GHOST: No ghost state for L =  2

KBgen: Kleinman-Bylander projectors: 
   l= 0   rc=  2.802581   el= -0.445644   Ekb=  3.908625   kbcos=  0.222548
   l= 1   rc=  2.802581   el= -0.066825   Ekb=  1.555330   kbcos=  0.234902
   l= 2   rc=  2.767767   el= -0.526351   Ekb= -5.977941   kbcos= -0.723482

KBgen: Total number of  Kleinman-Bylander projectors:    9
atom: -------------------------------------------------------------------------

atom: SANKEY-TYPE ORBITALS:

SPLIT: Orbitals with angular momentum L= 0

SPLIT: Basis orbitals for state 6s

SPLIT: PAO cut-off radius determined from an
SPLIT: energy shift=  0.020000 Ry

   izeta = 1
                 lambda =    1.000000
                     rc =    6.083298
                 energy =   -0.427287
                kinetic =    0.392598
    potential(screened) =   -0.819885
       potential(ionic) =   -8.596164

SPLIT: Orbitals with angular momentum L= 2

SPLIT: Basis orbitals for state 5d

SPLIT: PAO cut-off radius determined from an
SPLIT: energy shift=  0.020000 Ry

   izeta = 1
                 lambda =    1.000000
                     rc =    4.286818
                 energy =   -0.508109
                kinetic =    4.851847
    potential(screened) =   -5.359956
       potential(ionic) =  -16.120163
atom: Total number of Sankey-type orbitals:  6

atm_pop: Valence configuration (for local Pseudopot. screening):
 6s( 1.00)                                                            
 6p( 0.00)                                                            
 5d(10.00)                                                            
Vna: chval, zval:   11.00000  11.00000

Vna:  Cut-off radius for the neutral-atom potential:   6.083298

atom: _________________________________________________________________________

<basis_specs>
===============================================================================
N                    Z=   7    Mass=  14.010        Charge= 0.17977+309
Lmxo=1 Lmxkb= 3    BasisType=split      Semic=F
L=0  Nsemic=0  Cnfigmx=2
          n=1  nzeta=2  polorb=0
            splnorm:   0.15000    
               vcte:    0.0000    
               rinn:    0.0000    
               qcoe:    0.0000    
               qyuk:    0.0000    
               qwid:   0.10000E-01
                rcs:    0.0000      0.0000    
            lambdas:    1.0000      1.0000    
L=1  Nsemic=0  Cnfigmx=2
          n=1  nzeta=2  polorb=1
            splnorm:   0.15000    
               vcte:    0.0000    
               rinn:    0.0000    
               qcoe:    0.0000    
               qyuk:    0.0000    
               qwid:   0.10000E-01
                rcs:    0.0000      0.0000    
            lambdas:    1.0000      1.0000    
-------------------------------------------------------------------------------
L=0  Nkbl=1  erefs: 0.17977+309
L=1  Nkbl=1  erefs: 0.17977+309
L=2  Nkbl=1  erefs: 0.17977+309
L=3  Nkbl=1  erefs: 0.17977+309
===============================================================================
</basis_specs>

atom: Called for N                     (Z =   7)

read_vps: Pseudopotential generation method:
read_vps: ATM4.2.7  Troullier-Martins                       
Total valence charge:    5.00000

xc_check: Exchange-correlation functional:
xc_check: Ceperley-Alder
V l=0 = -2*Zval/r beyond r=  1.4606
V l=1 = -2*Zval/r beyond r=  1.4606
V l=2 = -2*Zval/r beyond r=  1.4606
V l=3 = -2*Zval/r beyond r=  1.4606
All V_l potentials equal beyond r=  1.4606
This should be close to max(r_c) in ps generation
All pots = -2*Zval/r beyond r=  1.4606

VLOCAL1: 99.0% of the norm of Vloc inside     20.347 Ry
VLOCAL1: 99.9% of the norm of Vloc inside     46.372 Ry
atom: Maximum radius for 4*pi*r*r*local-pseudopot. charge    1.76189
atom: Maximum radius for r*vlocal+2*Zval:    1.53550
GHOST: No ghost state for L =  0
GHOST: No ghost state for L =  1
GHOST: No ghost state for L =  2
GHOST: No ghost state for L =  3

KBgen: Kleinman-Bylander projectors: 
   l= 0   rc=  1.675947   el= -1.353297   Ekb=  4.892109   kbcos=  0.337655
   l= 1   rc=  1.655124   el= -0.532333   Ekb= -5.549267   kbcos= -0.433001
   l= 2   rc=  2.047085   el=  0.002346   Ekb= -1.340614   kbcos= -0.007544
   l= 3   rc=  2.348881   el=  0.003449   Ekb= -0.558194   kbcos= -0.000959

KBgen: Total number of  Kleinman-Bylander projectors:   16
atom: -------------------------------------------------------------------------

atom: SANKEY-TYPE ORBITALS:
atom: Selected multiple-zeta basis: split     

SPLIT: Orbitals with angular momentum L= 0

SPLIT: Basis orbitals for state 2s

SPLIT: PAO cut-off radius determined from an
SPLIT: energy shift=  0.020000 Ry

   izeta = 1
                 lambda =    1.000000
                     rc =    3.683980
                 energy =   -1.334887
                kinetic =    1.204128
    potential(screened) =   -2.539016
       potential(ionic) =   -8.130297

   izeta = 2
                 rmatch =    2.905100
              splitnorm =    0.150000
                 energy =   -1.140084
                kinetic =    1.810869
    potential(screened) =   -2.950953
       potential(ionic) =   -8.949068

SPLIT: Orbitals with angular momentum L= 1

SPLIT: Basis orbitals for state 2p

SPLIT: PAO cut-off radius determined from an
SPLIT: energy shift=  0.020000 Ry

   izeta = 1
                 lambda =    1.000000
                     rc =    4.280232
                 energy =   -0.512164
                kinetic =    3.599466
    potential(screened) =   -4.111630
       potential(ionic) =   -9.551775

   izeta = 2
                 rmatch =    2.941647
              splitnorm =    0.150000
                 energy =   -0.291934
                kinetic =    5.358713
    potential(screened) =   -5.650647
       potential(ionic) =  -11.695624

POLgen: Perturbative polarization orbital with L=  2

POLgen: Polarization orbital for state 2p

   izeta = 1
                     rc =    4.280232
                 energy =    1.826318
                kinetic =    3.687078
    potential(screened) =   -1.860760
       potential(ionic) =   -6.363680
atom: Total number of Sankey-type orbitals: 13

atm_pop: Valence configuration (for local Pseudopot. screening):
 2s( 2.00)                                                            
 2p( 3.00)                                                            
Vna: chval, zval:    5.00000   5.00000

Vna:  Cut-off radius for the neutral-atom potential:   4.280232

atom: _________________________________________________________________________

<basis_specs>
===============================================================================
C                    Z=   6    Mass=  12.010        Charge= 0.17977+309
Lmxo=1 Lmxkb= 3    BasisType=split      Semic=F
L=0  Nsemic=0  Cnfigmx=2
          n=1  nzeta=2  polorb=0
            splnorm:   0.15000    
               vcte:    0.0000    
               rinn:    0.0000    
               qcoe:    0.0000    
               qyuk:    0.0000    
               qwid:   0.10000E-01
                rcs:    0.0000      0.0000    
            lambdas:    1.0000      1.0000    
L=1  Nsemic=0  Cnfigmx=2
          n=1  nzeta=2  polorb=1
            splnorm:   0.15000    
               vcte:    0.0000    
               rinn:    0.0000    
               qcoe:    0.0000    
               qyuk:    0.0000    
               qwid:   0.10000E-01
                rcs:    0.0000      0.0000    
            lambdas:    1.0000      1.0000    
-------------------------------------------------------------------------------
L=0  Nkbl=1  erefs: 0.17977+309
L=1  Nkbl=1  erefs: 0.17977+309
L=2  Nkbl=1  erefs: 0.17977+309
L=3  Nkbl=1  erefs: 0.17977+309
===============================================================================
</basis_specs>

atom: Called for C                     (Z =   6)

read_vps: Pseudopotential generation method:
read_vps: ATM4.2.7  Troullier-Martins                       
Total valence charge:    4.00000

xc_check: Exchange-correlation functional:
xc_check: Ceperley-Alder
V l=0 = -2*Zval/r beyond r=  1.5227
V l=1 = -2*Zval/r beyond r=  1.5227
V l=2 = -2*Zval/r beyond r=  1.5227
V l=3 = -2*Zval/r beyond r=  1.5038
All V_l potentials equal beyond r=  1.5227
This should be close to max(r_c) in ps generation
All pots = -2*Zval/r beyond r=  1.5227

VLOCAL1: 99.0% of the norm of Vloc inside     18.722 Ry
VLOCAL1: 99.9% of the norm of Vloc inside     42.668 Ry
atom: Maximum radius for 4*pi*r*r*local-pseudopot. charge    1.83678
atom: Maximum radius for r*vlocal+2*Zval:    1.58088
GHOST: No ghost state for L =  0
GHOST: No ghost state for L =  1
GHOST: No ghost state for L =  2
GHOST: No ghost state for L =  3

KBgen: Kleinman-Bylander projectors: 
   l= 0   rc=  1.769164   el= -1.002383   Ekb=  4.944706   kbcos=  0.320005
   l= 1   rc=  1.769164   el= -0.398438   Ekb= -4.111874   kbcos= -0.367023
   l= 2   rc=  2.107589   el=  0.002326   Ekb= -1.050436   kbcos= -0.009341
   l= 3   rc=  2.358593   el=  0.003420   Ekb= -0.444500   kbcos= -0.001214

KBgen: Total number of  Kleinman-Bylander projectors:   16
atom: -------------------------------------------------------------------------

atom: SANKEY-TYPE ORBITALS:
atom: Selected multiple-zeta basis: split     

SPLIT: Orbitals with angular momentum L= 0

SPLIT: Basis orbitals for state 2s

SPLIT: PAO cut-off radius determined from an
SPLIT: energy shift=  0.020000 Ry

   izeta = 1
                 lambda =    1.000000
                     rc =    4.191849
                 energy =   -0.984359
                kinetic =    0.881234
    potential(screened) =   -1.865594
       potential(ionic) =   -5.477335

   izeta = 2
                 rmatch =    3.431921
              splitnorm =    0.150000
                 energy =   -0.853663
                kinetic =    1.298382
    potential(screened) =   -2.152045
       potential(ionic) =   -5.997528

SPLIT: Orbitals with angular momentum L= 1

SPLIT: Basis orbitals for state 2p

SPLIT: PAO cut-off radius determined from an
SPLIT: energy shift=  0.020000 Ry

   izeta = 1
                 lambda =    1.000000
                     rc =    4.870301
                 energy =   -0.378923
                kinetic =    2.540340
    potential(screened) =   -2.919263
       potential(ionic) =   -6.428536

   izeta = 2
                 rmatch =    3.475094
              splitnorm =    0.150000
                 energy =   -0.214881
                kinetic =    3.815219
    potential(screened) =   -4.030100
       potential(ionic) =   -7.921348

POLgen: Perturbative polarization orbital with L=  2

POLgen: Polarization orbital for state 2p

   izeta = 1
                     rc =    4.870301
                 energy =    1.281120
                kinetic =    2.631157
    potential(screened) =   -1.350037
       potential(ionic) =   -4.295491
atom: Total number of Sankey-type orbitals: 13

atm_pop: Valence configuration (for local Pseudopot. screening):
 2s( 2.00)                                                            
 2p( 2.00)                                                            
Vna: chval, zval:    4.00000   4.00000

Vna:  Cut-off radius for the neutral-atom potential:   4.870301

atom: _________________________________________________________________________

<basis_specs>
===============================================================================
H                    Z=   1    Mass=  1.0100        Charge= 0.17977+309
Lmxo=0 Lmxkb= 2    BasisType=split      Semic=F
L=0  Nsemic=0  Cnfigmx=1
          n=1  nzeta=2  polorb=1
            splnorm:   0.15000    
               vcte:    0.0000    
               rinn:    0.0000    
               qcoe:    0.0000    
               qyuk:    0.0000    
               qwid:   0.10000E-01
                rcs:    0.0000      0.0000    
            lambdas:    1.0000      1.0000    
-------------------------------------------------------------------------------
L=0  Nkbl=1  erefs: 0.17977+309
L=1  Nkbl=1  erefs: 0.17977+309
L=2  Nkbl=1  erefs: 0.17977+309
===============================================================================
</basis_specs>

atom: Called for H                     (Z =   1)

read_vps: Pseudopotential generation method:
read_vps: ATM4.2.7  Troullier-Martins                       
Total valence charge:    1.00000

xc_check: Exchange-correlation functional:
xc_check: Ceperley-Alder
V l=0 = -2*Zval/r beyond r=  1.2977
V l=1 = -2*Zval/r beyond r=  1.2815
V l=2 = -2*Zval/r beyond r=  1.1307
All V_l potentials equal beyond r=  1.2977
This should be close to max(r_c) in ps generation
All pots = -2*Zval/r beyond r=  1.2977

VLOCAL1: 99.0% of the norm of Vloc inside     25.776 Ry
VLOCAL1: 99.9% of the norm of Vloc inside     58.745 Ry
atom: Maximum radius for 4*pi*r*r*local-pseudopot. charge    1.52711
atom: Maximum radius for r*vlocal+2*Zval:    1.28155
GHOST: No ghost state for L =  0
GHOST: No ghost state for L =  1
GHOST: No ghost state for L =  2

KBgen: Kleinman-Bylander projectors: 
   l= 0   rc=  1.452513   el= -0.467311   Ekb= -1.940806   kbcos= -0.353010
   l= 1   rc=  1.752576   el=  0.001430   Ekb= -0.484365   kbcos= -0.024070
   l= 2   rc=  1.774652   el=  0.002365   Ekb= -0.503986   kbcos= -0.001615

KBgen: Total number of  Kleinman-Bylander projectors:    9
atom: -------------------------------------------------------------------------

atom: SANKEY-TYPE ORBITALS:
atom: Selected multiple-zeta basis: split     

SPLIT: Orbitals with angular momentum L= 0

SPLIT: Basis orbitals for state 1s

SPLIT: PAO cut-off radius determined from an
SPLIT: energy shift=  0.020000 Ry

   izeta = 1
                 lambda =    1.000000
                     rc =    4.828263
                 energy =   -0.449360
                kinetic =    0.925772
    potential(screened) =   -1.375132
       potential(ionic) =   -1.911259

   izeta = 2
                 rmatch =    3.854947
              splitnorm =    0.150000
                 energy =   -0.336131
                kinetic =    1.498125
    potential(screened) =   -1.834256
       potential(ionic) =   -2.406171

POLgen: Perturbative polarization orbital with L=  1

POLgen: Polarization orbital for state 1s

   izeta = 1
                     rc =    4.828263
                 energy =    0.707058
                kinetic =    1.398648
    potential(screened) =   -0.691590
       potential(ionic) =   -1.171958
atom: Total number of Sankey-type orbitals:  5

atm_pop: Valence configuration (for local Pseudopot. screening):
 1s( 1.00)                                                            
Vna: chval, zval:    1.00000   1.00000

Vna:  Cut-off radius for the neutral-atom potential:   4.828263

atom: _________________________________________________________________________

<basis_specs>
===============================================================================
O                    Z=   8    Mass=  16.000        Charge= 0.17977+309
Lmxo=1 Lmxkb= 3    BasisType=split      Semic=F
L=0  Nsemic=0  Cnfigmx=2
          n=1  nzeta=2  polorb=0
            splnorm:   0.15000    
               vcte:    0.0000    
               rinn:    0.0000    
               qcoe:    0.0000    
               qyuk:    0.0000    
               qwid:   0.10000E-01
                rcs:    0.0000      0.0000    
            lambdas:    1.0000      1.0000    
L=1  Nsemic=0  Cnfigmx=2
          n=1  nzeta=2  polorb=1
            splnorm:   0.15000    
               vcte:    0.0000    
               rinn:    0.0000    
               qcoe:    0.0000    
               qyuk:    0.0000    
               qwid:   0.10000E-01
                rcs:    0.0000      0.0000    
            lambdas:    1.0000      1.0000    
-------------------------------------------------------------------------------
L=0  Nkbl=1  erefs: 0.17977+309
L=1  Nkbl=1  erefs: 0.17977+309
L=2  Nkbl=1  erefs: 0.17977+309
L=3  Nkbl=1  erefs: 0.17977+309
===============================================================================
</basis_specs>

atom: Called for O                     (Z =   8)

read_vps: Pseudopotential generation method:
read_vps: ATM4.2.7  Troullier-Martins                       
Total valence charge:    6.00000

xc_check: Exchange-correlation functional:
xc_check: Ceperley-Alder
V l=0 = -2*Zval/r beyond r=  1.4482
V l=1 = -2*Zval/r beyond r=  1.4482
V l=2 = -2*Zval/r beyond r=  1.4482
V l=3 = -2*Zval/r beyond r=  1.4482
All V_l potentials equal beyond r=  1.4482
This should be close to max(r_c) in ps generation
All pots = -2*Zval/r beyond r=  1.4482

VLOCAL1: 99.0% of the norm of Vloc inside     20.696 Ry
VLOCAL1: 99.9% of the norm of Vloc inside     47.167 Ry
atom: Maximum radius for 4*pi*r*r*local-pseudopot. charge    1.74697
atom: Maximum radius for r*vlocal+2*Zval:    1.52250
GHOST: No ghost state for L =  0
GHOST: No ghost state for L =  1
GHOST: No ghost state for L =  2
GHOST: No ghost state for L =  3

KBgen: Kleinman-Bylander projectors: 
   l= 0   rc=  1.682657   el= -1.744568   Ekb=  4.448678   kbcos=  0.289593
   l= 1   rc=  1.620715   el= -0.676113   Ekb= -7.152049   kbcos= -0.499084
   l= 2   rc=  2.055271   el=  0.002386   Ekb= -1.611701   kbcos= -0.006652
   l= 3   rc=  2.358267   el=  0.003508   Ekb= -0.656031   kbcos= -0.000879

KBgen: Total number of  Kleinman-Bylander projectors:   16
atom: -------------------------------------------------------------------------

atom: SANKEY-TYPE ORBITALS:
atom: Selected multiple-zeta basis: split     

SPLIT: Orbitals with angular momentum L= 0

SPLIT: Basis orbitals for state 2s

SPLIT: PAO cut-off radius determined from an
SPLIT: energy shift=  0.020000 Ry

   izeta = 1
                 lambda =    1.000000
                     rc =    3.305093
                 energy =   -1.725984
                kinetic =    1.585887
    potential(screened) =   -3.311870
       potential(ionic) =  -11.297253

   izeta = 2
                 rmatch =    2.510382
              splitnorm =    0.150000
                 energy =   -1.479369
                kinetic =    2.381175
    potential(screened) =   -3.860544
       potential(ionic) =  -12.454987

SPLIT: Orbitals with angular momentum L= 1

SPLIT: Basis orbitals for state 2p

SPLIT: PAO cut-off radius determined from an
SPLIT: energy shift=  0.020000 Ry

   izeta = 1
                 lambda =    1.000000
                     rc =    3.937239
                 energy =   -0.658357
                kinetic =    4.694922
    potential(screened) =   -5.353279
       potential(ionic) =  -13.084446

   izeta = 2
                 rmatch =    2.541963
              splitnorm =    0.150000
                 energy =   -0.362807
                kinetic =    7.020572
    potential(screened) =   -7.383379
       potential(ionic) =  -16.009048

POLgen: Perturbative polarization orbital with L=  2

POLgen: Polarization orbital for state 2p

   izeta = 1
                     rc =    3.937239
                 energy =    2.394886
                kinetic =    4.807985
    potential(screened) =   -2.413099
       potential(ionic) =   -8.736318
atom: Total number of Sankey-type orbitals: 13

atm_pop: Valence configuration (for local Pseudopot. screening):
 2s( 2.00)                                                            
 2p( 4.00)                                                            
Vna: chval, zval:    6.00000   6.00000

Vna:  Cut-off radius for the neutral-atom potential:   3.937239

atom: _________________________________________________________________________

prinput: Basis input ----------------------------------------------------------

PAO.BasisType split     

%block ChemicalSpeciesLabel
    1   79 Au                      # Species index, atomic number, species label
    2    7 N                       # Species index, atomic number, species label
    3    6 C                       # Species index, atomic number, species label
    4    1 H                       # Species index, atomic number, species label
    5    8 O                       # Species index, atomic number, species label
%endblock ChemicalSpeciesLabel

%block PAO.Basis                 # Define Basis set
Au                    2                    # Species label, number of l-shells
 n=6   0   1                         # n, l, Nzeta 
   6.083   
   1.000   
 n=5   2   1                         # n, l, Nzeta 
   4.287   
   1.000   
N                     2                    # Species label, number of l-shells
 n=2   0   2                         # n, l, Nzeta 
   3.684      2.905   
   1.000      1.000   
 n=2   1   2 P   1                   # n, l, Nzeta, Polarization, NzetaPol
   4.280      2.942   
   1.000      1.000   
C                     2                    # Species label, number of l-shells
 n=2   0   2                         # n, l, Nzeta 
   4.192      3.432   
   1.000      1.000   
 n=2   1   2 P   1                   # n, l, Nzeta, Polarization, NzetaPol
   4.870      3.475   
   1.000      1.000   
H                     1                    # Species label, number of l-shells
 n=1   0   2 P   1                   # n, l, Nzeta, Polarization, NzetaPol
   4.828      3.855   
   1.000      1.000   
O                     2                    # Species label, number of l-shells
 n=2   0   2                         # n, l, Nzeta 
   3.305      2.510   
   1.000      1.000   
 n=2   1   2 P   1                   # n, l, Nzeta, Polarization, NzetaPol
   3.937      2.542   
   1.000      1.000   
%endblock PAO.Basis

prinput: ----------------------------------------------------------------------

coor:   Atomic-coordinates input format  =     Cartesian coordinates
coor:                                          (in units of alat)

ioxv: Reading coordinates and velocities from file
! Info in XV file prevails over previous structure input

siesta: Atomic coordinates (Bohr) and species
siesta:      2.71925   2.71925   0.00000  1        1
siesta:      8.15774   2.71925   0.00000  1        2
siesta:      8.15774   8.15774   0.00000  1        3
siesta:      2.71925   8.15774   0.00000  1        4
siesta:      5.43849   0.00000   3.84559  1        5
siesta:      5.43849   5.43849   3.84559  1        6
siesta:      2.71925   2.71925   7.69119  1        7
siesta:      8.15774   2.71925   7.69119  1        8
siesta:     10.87698   5.43849   3.84559  1        9
siesta:      8.15774   8.15774   7.69119  1       10
siesta:      0.00000   5.43849   3.84559  1       11
siesta:      2.71925   8.15774   7.69119  1       12
siesta:      5.43849  10.87698   3.84559  1       13
siesta:      5.43849   0.00000  11.53678  1       14
siesta:      5.43849   5.43849  11.53678  1       15
siesta:      2.71925   2.71925  15.38238  1       16
siesta:      8.15774   2.71925  15.38238  1       17
siesta:     10.87698   5.43849  11.53678  1       18
siesta:      8.15774   8.15774  15.38238  1       19
siesta:      0.00000   5.43849  11.53678  1       20
siesta:      2.71925   8.15774  15.38238  1       21
siesta:      5.43849  10.87698  11.53678  1       22
siesta:      5.43849   0.00000  19.22797  1       23
siesta:      5.43849   5.43849  19.22797  1       24
siesta:     10.87698   5.43849  19.22797  1       25
siesta:      0.00000   5.43849  19.22797  1       26
siesta:      5.43849  10.87698  19.22797  1       27
siesta:      2.71925   2.71925  23.07357  1       28
siesta:      8.15774   2.71925  23.07357  1       29
siesta:      8.15774   8.15774  23.07357  1       30
siesta:      2.71925   8.15774  23.07357  1       31
siesta:      5.43849   0.00000  26.91916  1       32
siesta:      5.43849   5.43849  26.91916  1       33
siesta:      2.71925   2.71925  30.76475  1       34
siesta:      8.15774   2.71925  30.76475  1       35
siesta:     10.87698   5.43849  26.91916  1       36
siesta:      8.15774   8.15774  30.76475  1       37
siesta:      0.00000   5.43849  26.91916  1       38
siesta:      2.71925   8.15774  30.76475  1       39
siesta:      5.43849  10.87698  26.91916  1       40
siesta:      5.43849   0.00000  34.61035  1       41
siesta:      5.43849   5.43849  34.61035  1       42
siesta:      2.71925   2.71925  38.45594  1       43
siesta:      8.15774   2.71925  38.45594  1       44
siesta:     10.87698   5.43849  34.61035  1       45
siesta:      8.15774   8.15774  38.45594  1       46
siesta:      0.00000   5.43849  34.61035  1       47
siesta:      2.71925   8.15774  38.45594  1       48
siesta:      5.43849  10.87698  34.61035  1       49
siesta:      5.43849   0.00000  42.30154  1       50
siesta:      5.43849   5.43849  42.30154  1       51
siesta:     10.87698   5.43849  42.30154  1       52
siesta:      0.00000   5.43849  42.30154  1       53
siesta:      5.43849  10.87698  42.30154  1       54
siesta:      2.71925   2.71925  46.14713  1       55
siesta:      8.15774   2.71925  46.14713  1       56
siesta:      8.15774   8.15774  46.14713  1       57
siesta:      2.71925   8.15774  46.14713  1       58
siesta:      5.43849   5.43849  49.99272  1       59
siesta:      7.60509   3.26258  78.18156  2       60
siesta:      7.52023   0.93027  81.48416  1       61
siesta:      8.78506   2.23684  75.90805  3       62
siesta:     10.52083   3.29009  75.50368  4       63
siesta:      7.14715   2.60454  73.54557  3       64
siesta:      8.17356   2.74415  71.43716  5       65
siesta:      9.42033  -0.56720  76.27318  3       66
siesta:     10.29453  -1.30964  74.55577  4       67
siesta:     10.75649  -0.79723  77.83491  4       68
siesta:      7.71929  -1.67262  76.68016  4       69
siesta:      4.63100   2.73182  73.87726  2       70
siesta:      3.95736   2.62206  75.66681  4       71
siesta:      2.85636   3.15607  71.80982  3       72
siesta:      3.10713   1.67206  70.39197  4       73
siesta:      3.34211   5.64630  70.38615  3       74
siesta:      2.64506   5.86484  68.16569  5       75
siesta:      0.13499   3.07028  72.80046  3       76
siesta:     -1.17768   3.37144  71.23539  4       77
siesta:     -0.26226   1.22451  73.64375  4       78
siesta:     -0.18868   4.53979  74.22122  4       79
siesta:      4.51302   7.53621  71.64917  2       80
siesta:      5.17395   7.26345  73.43978  4       81
siesta:      5.12303   9.90491  70.38153  3       82
siesta:      3.40216  10.64038  69.49929  4       83
siesta:      6.97464   9.54241  68.16639  3       84
siesta:      7.11225  11.17163  66.47687  5       85
siesta:      6.14459  11.84435  72.27721  3       86
siesta:      6.62976  13.59344  71.29222  4       87
siesta:      4.70763  12.26826  73.70144  4       88
siesta:      7.82915  11.12923  73.23845  4       89
siesta:      8.42527   7.45919  68.19370  2       90
siesta:      8.23059   6.23188  69.66191  4       91
siesta:      9.99469   6.65929  66.06864  3       92
siesta:     10.12687   8.26039  64.78068  4       93
siesta:      8.74418   4.50763  64.53671  3       94
siesta:      8.61406   4.62418  62.20465  5       95
siesta:     12.63773   5.87608  66.97486  3       96
siesta:     13.76726   5.18955  65.38411  4       97
siesta:     13.60123   7.50051  67.81571  4       98
siesta:     12.52228   4.37381  68.39347  4       99
siesta:      7.92253   2.47151  65.85410  2      100
siesta:      8.03121   2.45234  67.77617  4      101
siesta:      7.26536   0.11280  64.58208  3      102
siesta:      8.71507  -0.27121  63.15540  4      103
siesta:      4.79249   0.18987  63.05809  3      104
siesta:      4.44420  -1.39810  61.38895  5      105
siesta:      7.21082  -2.07674  66.48011  3      106
siesta:      6.76751  -3.83084  65.48524  4      107
siesta:      9.05326  -2.28242  67.39592  4      108
siesta:      5.77775  -1.77592  67.94235  4      109
siesta:      3.08958   2.01875  63.63157  2      110
siesta:      3.40456   3.22408  65.09907  4      111
siesta:      0.75580   2.28088  62.19542  3      112
siesta:      0.23122   0.38968  61.54131  4      113
siesta:      1.04648   3.85770  59.75407  3      114
siesta:     -0.80082   4.18422  58.36961  5      115
siesta:     -1.37655   3.35277  63.83586  3      116
siesta:     -3.07575   3.57429  62.68633  4      117
siesta:     -1.78569   2.06531  65.40102  4      118
siesta:     -0.85739   5.19085  64.62765  4      119
siesta:      3.36745   4.82178  59.26020  2      120
siesta:      4.83100   4.45074  60.44938  4      121
siesta:      3.88245   6.36603  57.05477  3      122
siesta:      2.04069   6.74886  56.18169  4      123
siesta:      5.42235   4.98711  55.02809  3      124
siesta:      5.39811   2.45887  55.29518  5      125
siesta:      5.15850   8.87322  57.80569  3      126
siesta:      6.86518   8.42185  58.89660  4      127
siesta:      5.77264   9.84516  56.08815  4      128
siesta:      3.40201  10.55924  59.37919  3      129
siesta:      1.95036  11.39944  58.15764  4      130
siesta:      2.40586   9.38331  60.76635  4      131
siesta:      4.84347  12.61971  60.82115  3      132
siesta:      6.32329  11.71159  61.94965  4      133
siesta:      5.77833  13.92815  59.51239  4      134
siesta:      3.09822  14.08010  62.59998  3      135
siesta:      2.00462  15.53812  61.63483  4      136
siesta:      1.79415  12.81336  63.57716  4      137
siesta:      4.60623  15.35241  64.65610  2      138
siesta:      3.46984  16.35994  65.85548  4      139
siesta:      5.56584  13.96288  65.69944  4      140
siesta:      5.91050  16.58576  63.93102  4      141
siesta:      6.50494   6.05275  53.30649  5      142
siesta:      7.25376   5.13417  78.35975  4      143
siesta:      7.52023   0.93027  52.21070  1      144
siesta:      5.43849   5.43849  83.70214  1      145
siesta:      2.71925   8.15774  87.54773  1      146
siesta:      8.15774   8.15774  87.54773  1      147
siesta:      8.15774   2.71925  87.54773  1      148
siesta:      2.71925   2.71925  87.54773  1      149
siesta:      5.43849  10.87698  91.39333  1      150
siesta:      0.00000   5.43849  91.39333  1      151
siesta:     10.87698   5.43849  91.39333  1      152
siesta:      5.43849   5.43849  91.39333  1      153
siesta:      5.43849   0.00000  91.39333  1      154
siesta:      5.43849  10.87698  99.08451  1      155
siesta:      2.71925   8.15774  95.23892  1      156
siesta:      0.00000   5.43849  99.08451  1      157
siesta:      8.15774   8.15774  95.23892  1      158
siesta:     10.87698   5.43849  99.08451  1      159
siesta:      8.15774   2.71925  95.23892  1      160
siesta:      2.71925   2.71925  95.23892  1      161
siesta:      5.43849   5.43849  99.08451  1      162
siesta:      5.43849   0.00000  99.08451  1      163
siesta:      5.43849  10.87698 106.77570  1      164
siesta:      2.71925   8.15774 102.93011  1      165
siesta:      0.00000   5.43849 106.77570  1      166
siesta:      8.15774   8.15774 102.93011  1      167
siesta:     10.87698   5.43849 106.77570  1      168
siesta:      8.15774   2.71925 102.93011  1      169
siesta:      2.71925   2.71925 102.93011  1      170
siesta:      5.43849   5.43849 106.77570  1      171
siesta:      5.43849   0.00000 106.77570  1      172
siesta:      2.71925   8.15774 110.62130  1      173
siesta:      8.15774   8.15774 110.62130  1      174
siesta:      8.15774   2.71925 110.62130  1      175
siesta:      2.71925   2.71925 110.62130  1      176
siesta:      5.43849  10.87698 114.46689  1      177
siesta:      0.00000   5.43849 114.46689  1      178
siesta:     10.87698   5.43849 114.46689  1      179
siesta:      5.43849   5.43849 114.46689  1      180
siesta:      5.43849   0.00000 114.46689  1      181
siesta:      5.43849  10.87698 122.15808  1      182
siesta:      2.71925   8.15774 118.31248  1      183
siesta:      0.00000   5.43849 122.15808  1      184
siesta:      8.15774   8.15774 118.31248  1      185
siesta:     10.87698   5.43849 122.15808  1      186
siesta:      8.15774   2.71925 118.31248  1      187
siesta:      2.71925   2.71925 118.31248  1      188
siesta:      5.43849   5.43849 122.15808  1      189
siesta:      5.43849   0.00000 122.15808  1      190
siesta:      5.43849  10.87698 129.84927  1      191
siesta:      2.71925   8.15774 126.00367  1      192
siesta:      0.00000   5.43849 129.84927  1      193
siesta:      8.15774   8.15774 126.00367  1      194
siesta:     10.87698   5.43849 129.84927  1      195
siesta:      8.15774   2.71925 126.00367  1      196
siesta:      2.71925   2.71925 126.00367  1      197
siesta:      5.43849   5.43849 129.84927  1      198
siesta:      5.43849   0.00000 129.84927  1      199
siesta:      2.71925   8.15774 133.69486  1      200
siesta:      8.15774   8.15774 133.69486  1      201
siesta:      8.15774   2.71925 133.69486  1      202
siesta:      2.71925   2.71925 133.69486  1      203

siesta: System type = molecule  

initatomlists: Number of atoms, orbitals, and projectors:    203  1455  2107

coxmol: Writing XMOL coordinates into file em.xyz                                                              

siesta: ******************** Simulation parameters ****************************
siesta:
siesta: The following are some of the parameters of the simulation.
siesta: A complete list of the parameters used, including default values,
siesta: can be found in file out.fdf
siesta:
redata: Spin configuration                          = spin-orbit
redata: Number of spin components                   = 8
redata: Time-Reversal Symmetry                      = F
redata: Spin-spiral                                 = F
############################################################
#              Spin-orbit coupling is in beta              #
#           Several options may not be compatible          #
############################################################
redata: Long output                                 =   F
redata: Number of Atomic Species                    =        5
redata: Charge density info will appear in .RHO file
redata: Write Mulliken Pop.                         = Atomic and Orbital charges
redata: Mesh Cutoff                                 =   350.0000 Ry
redata: Net charge of the system                    =     1.0000 |e|
redata: Min. number of SCF Iter                     =        0
redata: Max. number of SCF Iter                     =      300
redata: SCF mix quantity                            = Hamiltonian
redata: Mix DM or H after convergence               =   F
redata: Recompute H after scf cycle                 =   F
redata: Mix DM in first SCF step                    =   T
redata: Write Pulay info on disk                    =   F
redata: New DM Mixing Weight                        =     0.0300
redata: New DM Occupancy tolerance                  = 0.000000000001
redata: No kicks to SCF
redata: DM Mixing Weight for Kicks                  =     0.5000
redata: Require Harris convergence for SCF          =   F
redata: Harris energy tolerance for SCF             =     0.000100 eV
redata: Require DM convergence for SCF              =   T
redata: DM tolerance for SCF                        =     0.0001
redata: Require EDM convergence for SCF             =   F
redata: EDM tolerance for SCF                       =     0.001000 eV
redata: Require H convergence for SCF               =   T
redata: Hamiltonian tolerance for SCF               =     0.001000 eV
redata: Require (free) Energy convergence for SCF   =   F
redata: (free) Energy tolerance for SCF             =     0.000100 eV
redata: Using Saved Data (generic)                  =   F
redata: Use continuation files for DM               =   T
redata: Neglect nonoverlap interactions             =   F
redata: Method of Calculation                       = Diagonalization
redata: Divide and Conquer                          =   F
redata: Electronic Temperature                      =   299.9869 K
redata: Fix the spin of the system                  =   F
redata: Dynamics option                             = Single-point calculation
mix.SCF: Pulay mixing                            = Pulay
mix.SCF:    Variant                              = stable
mix.SCF:    History steps                        = 5
mix.SCF:    Linear mixing weight                 =     0.030000
mix.SCF:    Mixing weight                        =     0.030000
mix.SCF:    SVD condition                        = 0.1000E-07
mix.SCF: Spin-component mixing                   all
redata: ***********************************************************************

%block SCF.Mixers
  Pulay
%endblock SCF.Mixers

%block SCF.Mixer.Pulay
  # Mixing method
  method pulay
  variant stable

  # Mixing options
  weight 0.0300
  weight.linear 0.0300
  history 5
%endblock SCF.Mixer.Pulay

DM_history_depth set to one: no extrapolation allowed by default for geometry relaxation
Size of DM history Fstack: 1
Total number of electrons:  1546.000000
Total ionic charge:  1547.000000
madelung: WARNING: Charged system, but not SC, FCC or BCC cell.
madelung: WARNING: Energy correction terms can not be applied. 
madelung: WARNING: Continue only if you really know what you are doing.

Time-reversal symmetry not used.

siesta: k-grid: Number of k-points =    27
siesta: k-grid: Cutoff (effective) =    45.000 Ang
siesta: k-grid: Supercell and displacements
siesta: k-grid:    3   0   0      0.000
siesta: k-grid:    0   3   0      0.000
siesta: k-grid:    0   0   3      0.000


                     ====================================
                        Single-point calculation
                     ====================================

outcell: Unit cell vectors (Ang):
       30.000000    0.000000    0.000000
        0.000000   30.000000    0.000000
        0.000000    0.000000   80.471707

outcell: Cell vector modules (Ang)   :   30.000000   30.000000   80.471707
outcell: Cell angles (23,13,12) (deg):     90.0000     90.0000     90.0000
outcell: Cell volume (Ang**3)        :  72424.5362
<dSpData1D:S at geom step 0
  <sparsity:sparsity for geom step 0
    nrows_g=1455 nrows=1455 sparsity=.1692 nnzs=358205, refcount: 8>
  <dData1D:(new from dSpData1D) n=358205, refcount: 1>
refcount: 1>
new_DM -- step:     1
Initializing Density Matrix...

Attempting to read DM from file... Failed...
DM filled with atomic data:
<dSpData2D:DM initialized from atoms
  <sparsity:sparsity for geom step 0
    nrows_g=1455 nrows=1455 sparsity=.1692 nnzs=358205, refcount: 9>
  <dData2D:DM n=358205 m=8, refcount: 1>
refcount: 1>

initDM: Initial spin polarization (x,y,z) =    0.000000    0.000000  251.000001

No. of atoms with KB's overlaping orbs in proc 0. Max # of overlaps:     203     199
New grid distribution:   1
           1       1:  180    1:  180    1:  480

InitMesh: MESH =   360 x   360 x   960 =   124416000
InitMesh: (bp) =   180 x   180 x   480 =    15552000
InitMesh: Mesh cutoff (required, used) =   350.000   393.331 Ry
ExtMesh (bp) on 0 =   260 x   260 x   560 =    37856000
PhiOnMesh: Number of (b)points on node 0 =             15552000
PhiOnMesh: nlist on node 0 =             19401363

stepf: Fermi-Dirac step function

siesta: Program's energy decomposition (eV):
siesta: Ebs     =    -14417.816815
siesta: Eions   =    132631.767549
siesta: Ena     =      3605.087328
siesta: Ekin    =     84366.203574
siesta: Enl     =    -52528.661593
siesta: Eso     =       -24.811025
siesta: Eldau   =         0.000000
siesta: DEna    =      -211.344140
siesta: DUscf   =       345.973149
siesta: DUext   =         0.000000
siesta: Exc     =    -19927.121197
siesta: eta*DQ  =         0.000000
siesta: Emadel  =         0.000000
siesta: Emeta   =         0.000000
siesta: Emolmec =         0.000000
siesta: Ekinion =         0.000000
siesta: Eharris =   -116584.927970
siesta: Etot    =   -117006.441452
siesta: FreeEng =   -117006.549265

        iscf     Eharris(eV)        E_KS(eV)     FreeEng(eV)     dDmax    Ef(eV) dHmax(eV)
   scf:    1  -116584.927970  -117006.441452  -117006.549265  0.979022 -1.329199 43.840091
timer: Routine,Calls,Time,% = IterSCF        1    4930.108  98.93
   scf:    2   -20869.429859   -86411.564011   -86411.592380  1.048234 17.131245547.139490
   scf:    3  -120187.232588  -116599.523937  -116599.730350  1.089821 -1.791857 96.285374
   scf:    4  -117292.391296  -116994.609852  -116994.818033  0.341686 -1.781389 52.593634
   scf:    5  -117127.505451  -117065.193773  -117065.367299  0.134783 -1.779544 50.428863
   scf:    6  -117261.478964  -117175.081536  -117175.263997  0.182030 -1.798562 34.446453
   scf:    7  -117278.852528  -117249.011205  -117249.201559  0.126601 -1.814870 16.719108
   scf:    8  -117265.453638  -117258.460147  -117258.642083  0.069636 -1.839410 11.033228
   scf:    9  -117269.818703  -117265.735523  -117265.918241  0.072053 -1.895584  7.486330
   scf:   10  -117271.979388  -117269.887533  -117270.061905  0.058676 -1.993966  6.202364
   scf:   11  -117273.299901  -117272.569326  -117272.725671  0.119696 -2.125171  5.412027
   scf:   12  -117273.273003  -117273.968258  -117274.118147  0.043214 -2.161242  5.543446
   scf:   13  -117276.561885  -117275.515680  -117275.658759  0.031272 -2.219641  4.964042
   scf:   14  -117277.432911  -117277.407281  -117277.549179  0.104716 -2.494649  3.298438
   scf:   15  -117278.602326  -117278.365455  -117278.507311  0.076340 -2.459906  2.715224
   scf:   16  -117279.411576  -117278.990673  -117279.127140  0.073337 -2.514899  2.009109
   scf:   17  -117279.390184  -117279.350894  -117279.483402  0.041150 -2.490773  1.649776
   scf:   18  -117279.304440  -117279.386406  -117279.503990  0.039683 -2.500203  2.364049
   scf:   19  -117279.779250  -117279.698390  -117279.810141  0.038560 -2.495796  2.089627
   scf:   20  -117279.770015  -117279.746229  -117279.857392  0.004733 -2.499902  1.709093
   scf:   21  -117280.072152  -117279.941519  -117280.045361  0.020847 -2.523366  1.396338
   scf:   22  -117280.014202  -117279.990447  -117280.092866  0.008988 -2.535287  0.567581
   scf:   23  -117280.011861  -117280.004196  -117280.106737  0.006261 -2.534442  0.425111
   scf:   24  -117280.030358  -117280.019554  -117280.123015  0.006681 -2.527272  0.402329
   scf:   25  -117280.087642  -117280.057487  -117280.162831  0.008316 -2.512067  0.415641
   scf:   26  -117280.085358  -117280.072439  -117280.178467  0.004622 -2.507654  0.291628
   scf:   27  -117280.089320  -117280.081532  -117280.187746  0.005966 -2.506426  0.237299
   scf:   28  -117280.092385  -117280.087269  -117280.193686  0.003808 -2.504791  0.225673
   scf:   29  -117280.094982  -117280.091344  -117280.197811  0.003012 -2.503919  0.190773
   scf:   30  -117280.110713  -117280.101133  -117280.208258  0.008195 -2.497139  0.155772
   scf:   31  -117280.102425  -117280.101798  -117280.208922  0.001019 -2.497011  0.136259
   scf:   32  -117280.108136  -117280.104996  -117280.212202  0.004819 -2.495060  0.129207
   scf:   33  -117280.105979  -117280.105499  -117280.212719  0.000893 -2.494791  0.112647
   scf:   34  -117280.103690  -117280.104593  -117280.211758  0.001479 -2.495487  0.124513
   scf:   35  -117280.102563  -117280.103574  -117280.210639  0.001474 -2.496519  0.113047
   scf:   36  -117280.102231  -117280.102917  -117280.209895  0.000854 -2.497324  0.113330
   scf:   37  -117280.104334  -117280.103666  -117280.210697  0.001270 -2.496750  0.112084
   scf:   38  -117280.104747  -117280.104211  -117280.211274  0.000860 -2.496405  0.116399
   scf:   39  -117280.108392  -117280.106289  -117280.213505  0.003271 -2.494939  0.093879
   scf:   40  -117280.112122  -117280.109089  -117280.216516  0.005253 -2.492628  0.075590
   scf:   41  -117280.112623  -117280.110782  -117280.218327  0.004127 -2.491077  0.053470
   scf:   42  -117280.112426  -117280.111597  -117280.219134  0.002181 -2.490547  0.047150
   scf:   43  -117280.112339  -117280.111963  -117280.219500  0.001149 -2.490315  0.044003
   scf:   44  -117280.112255  -117280.112111  -117280.219553  0.000421 -2.490827  0.045334
   scf:   45  -117280.113696  -117280.112882  -117280.220235  0.002382 -2.490938  0.042756
   scf:   46  -117280.113384  -117280.113131  -117280.220442  0.000777 -2.491136  0.041383
   scf:   47  -117280.114104  -117280.113604  -117280.220894  0.001745 -2.491098  0.035424
   scf:   48  -117280.114252  -117280.113921  -117280.221202  0.001292 -2.491028  0.032185
   scf:   49  -117280.114119  -117280.114020  -117280.221306  0.000450 -2.490960  0.030530
   scf:   50  -117280.114414  -117280.114214  -117280.221487  0.000846 -2.490971  0.029293
   scf:   51  -117280.114060  -117280.114137  -117280.221414  0.000344 -2.490963  0.030040
   scf:   52  -117280.114265  -117280.114201  -117280.221484  0.000345 -2.490860  0.029401
   scf:   53  -117280.114195  -117280.114198  -117280.221484  0.000019 -2.490827  0.029463
   scf:   54  -117280.114664  -117280.114425  -117280.221695  0.001063 -2.490759  0.026472
   scf:   55  -117280.116321  -117280.115264  -117280.222469  0.004713 -2.490709  0.016694
   scf:   56  -117280.115979  -117280.115589  -117280.222774  0.002576 -2.490660  0.012527
   scf:   57  -117280.115978  -117280.115769  -117280.222941  0.001800 -2.490647  0.008393
   scf:   58  -117280.115994  -117280.115874  -117280.223035  0.001284 -2.490629  0.006556
   scf:   59  -117280.115901  -117280.115888  -117280.223045  0.000111 -2.490644  0.006147
   scf:   60  -117280.116126  -117280.115995  -117280.223135  0.001500 -2.490694  0.004895
   scf:   61  -117280.116333  -117280.116134  -117280.223237  0.002414 -2.490892  0.003962
   scf:   62  -117280.116181  -117280.116156  -117280.223254  0.000617 -2.490930  0.004047
   scf:   63  -117280.116184  -117280.116170  -117280.223263  0.000169 -2.490964  0.004119
   scf:   64  -117280.116185  -117280.116177  -117280.223266  0.000155 -2.490998  0.003357
   scf:   65  -117280.116195  -117280.116185  -117280.223268  0.000391 -2.491037  0.002906
   scf:   66  -117280.116224  -117280.116204  -117280.223279  0.000178 -2.491073  0.003208
   scf:   67  -117280.116258  -117280.116228  -117280.223296  0.000609 -2.491105  0.002188
   scf:   68  -117280.116242  -117280.116235  -117280.223300  0.000095 -2.491114  0.002138
   scf:   69  -117280.116227  -117280.116231  -117280.223302  0.000123 -2.491081  0.002688
   scf:   70  -117280.116220  -117280.116225  -117280.223300  0.000263 -2.491052  0.002717
   scf:   71  -117280.116224  -117280.116224  -117280.223302  0.000070 -2.491034  0.002542
   scf:   72  -117280.116221  -117280.116223  -117280.223302  0.000024 -2.491028  0.002500
   scf:   73  -117280.116220  -117280.116221  -117280.223304  0.000083 -2.491009  0.002227
   scf:   74  -117280.116224  -117280.116223  -117280.223306  0.000150 -2.491000  0.001962
   scf:   75  -117280.116232  -117280.116228  -117280.223312  0.000234 -2.490989  0.001957
   scf:   76  -117280.116233  -117280.116230  -117280.223314  0.000191 -2.490985  0.001602
   scf:   77  -117280.116238  -117280.116234  -117280.223318  0.000254 -2.490982  0.001337
   scf:   78  -117280.116242  -117280.116237  -117280.223320  0.000220 -2.490990  0.001262
   scf:   79  -117280.116240  -117280.116238  -117280.223321  0.000119 -2.490992  0.001163
   scf:   80  -117280.116241  -117280.116239  -117280.223322  0.000103 -2.490997  0.000981
   scf:   81  -117280.116241  -117280.116240  -117280.223322  0.000162 -2.490997  0.000770
   scf:   82  -117280.116239  -117280.116239  -117280.223323  0.000079 -2.490990  0.000761

SCF Convergence by DM+H criterion
max |DM_out - DM_in|         :     0.0000793302
max |H_out - H_in|      (eV) :     0.0007607240
SCF cycle converged after 82 iterations

Using DM_out to compute the final energy and forces
No. of atoms with KB's overlaping orbs in proc 0. Max # of overlaps:     203     199

siesta: E_KS(eV) =          -117280.1162

siesta: E_KS - E_eggbox =   -117280.1162
siesta: Total spin polarization (x,y,z) =    -0.000012   -0.000179   -0.000476
siesta: S , {S} =     0.000508   -0.000012   -0.000179   -0.000476

siesta: Atomic forces (eV/Ang):
----------------------------------------
   Tot    0.005807    0.019667   -0.022464
----------------------------------------
   Max    6.538753
   Res    0.684068    sqrt( Sum f_i^2 / 3N )
----------------------------------------
   Max    6.538753    constrained

Stress-tensor-Voigt (kbar):        0.76        0.95        1.64       -0.08        0.05       -0.03
(Free)E + p*V (eV/cell)  -117330.8012
Target enthalpy (eV/cell)  -117280.2233

moments: Atomic and Orbital Populations and Magnetic Moments:

Species: Au                  

Atom    Orb           Charge    sqrt(<S>^2)        <(Sx,Sy,Sz)>     sqrt(<L>^2)      <(Lx,Ly,Lz)>
----------------------------------------------------------------------------------------------------
   1    1  6s         1.3052                  -0.000 -0.000 -0.000               0.000  0.000  0.000
   1    2  5dxy       1.9582                   0.000  0.000 -0.000              -0.000 -0.000 -0.000
   1    3  5dyz       1.9348                  -0.000  0.001  0.000               0.000 -0.000  0.000
   1    4  5dz2       1.9696                  -0.000 -0.000 -0.000               0.000 -0.000  0.000
   1    5  5dxz       1.9338                   0.001 -0.000 -0.000              -0.000  0.000  0.000
   1    6  5dx2-y2    1.9076                  -0.001 -0.001 -0.000              -0.000  0.000 -0.000
----------------------------------------------------------------------------------------------------
   1      Total      11.0092         0.000    -0.000 -0.000 -0.000       0.000  -0.000  0.000 -0.000

   2    7  6s         1.2821                   0.000 -0.000 -0.000               0.000  0.000  0.000
   2    8  5dxy       1.9592                  -0.000  0.000 -0.000               0.000 -0.000 -0.000
   2    9  5dyz       1.9359                   0.000  0.001 -0.000              -0.000 -0.000 -0.000
   2   10  5dz2       1.9692                   0.000 -0.000 -0.000               0.000 -0.000  0.000
   2   11  5dxz       1.9353                  -0.001 -0.000 -0.000               0.000 -0.000 -0.000
   2   12  5dx2-y2    1.9164                   0.001 -0.001 -0.000              -0.000 -0.000 -0.000
----------------------------------------------------------------------------------------------------
   2      Total      10.9981         0.000     0.000 -0.000 -0.000       0.000   0.000 -0.000 -0.000

   3   13  6s         1.3025                   0.000  0.000 -0.000               0.000  0.000  0.000
   3   14  5dxy       1.9586                  -0.000 -0.000 -0.000               0.000  0.000 -0.000
   3   15  5dyz       1.9353                   0.000 -0.001 -0.000              -0.000  0.000  0.000
   3   16  5dz2       1.9694                   0.000  0.000 -0.000              -0.000 -0.000  0.000
   3   17  5dxz       1.9346                  -0.001  0.000  0.000               0.000 -0.000  0.000
   3   18  5dx2-y2    1.9079                   0.001  0.001 -0.000              -0.000  0.000 -0.000
----------------------------------------------------------------------------------------------------
   3      Total      11.0083         0.000     0.000  0.000 -0.000       0.000   0.000  0.000 -0.000

   4   19  6s         1.2718                  -0.000  0.000 -0.000               0.000  0.000  0.000
   4   20  5dxy       1.9598                   0.000 -0.000 -0.000              -0.000 -0.000 -0.000
   4   21  5dyz       1.9369                  -0.000 -0.001 -0.000              -0.000 -0.000 -0.000
   4   22  5dz2       1.9700                  -0.000  0.000 -0.000               0.000  0.000  0.000
   4   23  5dxz       1.9361                   0.001  0.000 -0.000              -0.000 -0.000 -0.000
   4   24  5dx2-y2    1.9176                  -0.001  0.001 -0.000              -0.000 -0.000 -0.000
----------------------------------------------------------------------------------------------------
   4      Total      10.9922         0.000    -0.000  0.000 -0.000       0.000  -0.000 -0.000 -0.000

   5   25  6s         1.3586                   0.000 -0.000  0.000               0.000  0.000  0.000
   5   26  5dxy       1.9595                   0.000  0.000 -0.000               0.000  0.000 -0.000
   5   27  5dyz       1.9612                  -0.000 -0.000 -0.000               0.000  0.000 -0.000
   5   28  5dz2       1.9643                   0.000 -0.000  0.000               0.000 -0.000  0.000
   5   29  5dxz       1.8586                  -0.000 -0.000 -0.000               0.000 -0.000 -0.000
   5   30  5dx2-y2    1.9416                  -0.000  0.000  0.000               0.000  0.000 -0.000
----------------------------------------------------------------------------------------------------
   5      Total      11.0438         0.000     0.000 -0.000 -0.000       0.000   0.000  0.000 -0.000

   6   31  6s         1.1466                  -0.000 -0.000  0.000               0.000  0.000  0.000
   6   32  5dxy       1.9457                   0.000 -0.000 -0.000               0.000 -0.000 -0.000
   6   33  5dyz       1.9142                  -0.000 -0.000 -0.000               0.000 -0.000 -0.000
   6   34  5dz2       1.9538                   0.000  0.000  0.000               0.000  0.000  0.000
   6   35  5dxz       1.9240                  -0.000  0.000 -0.000               0.000 -0.000 -0.000
   6   36  5dx2-y2    1.9617                  -0.000 -0.000 -0.000               0.000 -0.000 -0.000
----------------------------------------------------------------------------------------------------
   6      Total      10.8460         0.000    -0.000  0.000 -0.000       0.000   0.000 -0.000 -0.000

   7   37  6s         1.2962                   0.000  0.000 -0.000               0.000  0.000  0.000
   7   38  5dxy       1.9356                   0.000  0.000 -0.000              -0.000 -0.000 -0.000
   7   39  5dyz       1.9054                   0.000  0.000  0.000               0.000 -0.000  0.000
   7   40  5dz2       1.9705                   0.000  0.000 -0.000               0.000 -0.000  0.000
   7   41  5dxz       1.9055                   0.000 -0.000  0.000              -0.000 -0.000  0.000
   7   42  5dx2-y2    1.9462                  -0.000 -0.000 -0.000              -0.000 -0.000 -0.000
----------------------------------------------------------------------------------------------------
   7      Total      10.9595         0.000     0.000  0.000 -0.000       0.000   0.000 -0.000 -0.000

   8   43  6s         1.2791                  -0.000  0.000 -0.000               0.000  0.000  0.000
   8   44  5dxy       1.9364                  -0.000  0.000 -0.000               0.000 -0.000 -0.000
   8   45  5dyz       1.9076                  -0.000  0.000 -0.000              -0.000 -0.000 -0.000
   8   46  5dz2       1.9707                  -0.000  0.000 -0.000              -0.000  0.000  0.000
   8   47  5dxz       1.9080                  -0.000 -0.000 -0.000               0.000 -0.000 -0.000
   8   48  5dx2-y2    1.9478                   0.000 -0.000 -0.000              -0.000 -0.000 -0.000
----------------------------------------------------------------------------------------------------
   8      Total      10.9497         0.000    -0.000  0.000 -0.000       0.000  -0.000 -0.000 -0.000

   9   49  6s         1.3568                   0.000  0.000 -0.000               0.000  0.000  0.000
   9   50  5dxy       1.9593                  -0.000 -0.000 -0.000              -0.000 -0.000 -0.000
   9   51  5dyz       1.8544                   0.000 -0.000 -0.000               0.000 -0.000 -0.000
   9   52  5dz2       1.9641                   0.000 -0.000  0.000               0.000 -0.000  0.000
   9   53  5dxz       1.9647                   0.000 -0.000 -0.000              -0.000 -0.000 -0.000
   9   54  5dx2-y2    1.9417                  -0.000  0.000  0.000              -0.000 -0.000 -0.000
----------------------------------------------------------------------------------------------------
   9      Total      11.0409         0.000     0.000 -0.000 -0.000       0.000   0.000 -0.000 -0.000

  10   55  6s         1.2989                  -0.000 -0.000 -0.000               0.000  0.000  0.000
  10   56  5dxy       1.9351                  -0.000 -0.000 -0.000               0.000  0.000 -0.000
  10   57  5dyz       1.9053                  -0.000 -0.000  0.000              -0.000  0.000  0.000
  10   58  5dz2       1.9711                  -0.000 -0.000 -0.000              -0.000 -0.000  0.000
  10   59  5dxz       1.9054                  -0.000 -0.000  0.000               0.000 -0.000  0.000
  10   60  5dx2-y2    1.9460                   0.000  0.000 -0.000               0.000  0.000 -0.000
----------------------------------------------------------------------------------------------------
  10      Total      10.9618         0.000    -0.000 -0.000 -0.000       0.000   0.000 -0.000 -0.000

  11   61  6s         1.3592                  -0.000 -0.000 -0.000               0.000  0.000  0.000
  11   62  5dxy       1.9597                   0.000 -0.000 -0.000              -0.000 -0.000 -0.000
  11   63  5dyz       1.8534                  -0.000 -0.000 -0.000              -0.000 -0.000 -0.000
  11   64  5dz2       1.9641                  -0.000  0.000  0.000              -0.000  0.000  0.000
  11   65  5dxz       1.9647                  -0.000 -0.000 -0.000              -0.000  0.000 -0.000
  11   66  5dx2-y2    1.9414                   0.000 -0.000  0.000              -0.000 -0.000 -0.000
----------------------------------------------------------------------------------------------------
  11      Total      11.0424         0.000    -0.000 -0.000 -0.000       0.000  -0.000 -0.000 -0.000

  12   67  6s         1.2862                   0.000 -0.000 -0.000               0.000  0.000  0.000
  12   68  5dxy       1.9357                   0.000 -0.000 -0.000               0.000 -0.000 -0.000
  12   69  5dyz       1.9071                   0.000 -0.000 -0.000               0.000 -0.000 -0.000
  12   70  5dz2       1.9703                   0.000 -0.000 -0.000               0.000 -0.000  0.000
  12   71  5dxz       1.9071                   0.000  0.000 -0.000               0.000 -0.000 -0.000
  12   72  5dx2-y2    1.9474                  -0.000  0.000 -0.000              -0.000 -0.000 -0.000
----------------------------------------------------------------------------------------------------
  12      Total      10.9538         0.000     0.000 -0.000 -0.000       0.000   0.000 -0.000 -0.000

  13   73  6s         1.3580                   0.000  0.000 -0.000               0.000  0.000  0.000
  13   74  5dxy       1.9600                   0.000 -0.000 -0.000              -0.000  0.000 -0.000
  13   75  5dyz       1.9609                  -0.000  0.000 -0.000               0.000  0.000 -0.000
  13   76  5dz2       1.9640                  -0.000  0.000 -0.000              -0.000  0.000  0.000
  13   77  5dxz       1.8590                  -0.000  0.000 -0.000              -0.000  0.000 -0.000
  13   78  5dx2-y2    1.9416                   0.000 -0.000  0.000               0.000  0.000 -0.000
----------------------------------------------------------------------------------------------------
  13      Total      11.0435         0.000     0.000  0.000 -0.000       0.000   0.000  0.000 -0.000

  14   79  6s         1.3530                   0.000  0.000  0.000               0.000  0.000  0.000
  14   80  5dxy       1.9648                   0.000  0.000 -0.000              -0.000  0.000 -0.000
  14   81  5dyz       1.9528                  -0.000 -0.000 -0.000              -0.000  0.000 -0.000
  14   82  5dz2       1.9693                   0.000  0.000  0.000              -0.000  0.000  0.000
  14   83  5dxz       1.8611                  -0.000 -0.000 -0.000              -0.000 -0.000 -0.000
  14   84  5dx2-y2    1.9420                  -0.000 -0.000  0.000              -0.000 -0.000 -0.000
----------------------------------------------------------------------------------------------------
  14      Total      11.0431         0.000     0.000  0.000 -0.000       0.000  -0.000 -0.000 -0.000

  15   85  6s         1.1500                   0.000  0.000 -0.000               0.000  0.000  0.000
  15   86  5dxy       1.9611                  -0.000  0.000 -0.000              -0.000  0.000 -0.000
  15   87  5dyz       1.9230                  -0.000  0.000 -0.000              -0.000  0.000 -0.000
  15   88  5dz2       1.9564                   0.000  0.000  0.000               0.000  0.000  0.000
  15   89  5dxz       1.9294                  -0.000  0.000 -0.000              -0.000  0.000 -0.000
  15   90  5dx2-y2    1.9615                  -0.000 -0.000 -0.000              -0.000  0.000 -0.000
----------------------------------------------------------------------------------------------------
  15      Total      10.8814         0.000    -0.000  0.000 -0.000       0.000  -0.000  0.000 -0.000

  16   91  6s         1.3144                   0.000  0.000 -0.000               0.000  0.000  0.000
  16   92  5dxy       1.9370                  -0.000 -0.000 -0.000              -0.000 -0.000 -0.000
  16   93  5dyz       1.9048                   0.000  0.000  0.000               0.000 -0.000  0.000
  16   94  5dz2       1.9753                  -0.000 -0.000 -0.000               0.000  0.000  0.000
  16   95  5dxz       1.9053                   0.000  0.000  0.000              -0.000  0.000  0.000
  16   96  5dx2-y2    1.9433                  -0.000 -0.000 -0.000               0.000 -0.000 -0.000
----------------------------------------------------------------------------------------------------
  16      Total      10.9801         0.000     0.000  0.000 -0.000       0.000   0.000  0.000 -0.000

  17   97  6s         1.3014                   0.000 -0.000 -0.000               0.000  0.000  0.000
  17   98  5dxy       1.9374                   0.000 -0.000 -0.000               0.000 -0.000 -0.000
  17   99  5dyz       1.9066                  -0.000  0.000 -0.000              -0.000 -0.000 -0.000
  17  100  5dz2       1.9755                   0.000 -0.000 -0.000              -0.000  0.000  0.000
  17  101  5dxz       1.9064                  -0.000  0.000 -0.000               0.000  0.000 -0.000
  17  102  5dx2-y2    1.9448                   0.000 -0.000 -0.000              -0.000 -0.000 -0.000
----------------------------------------------------------------------------------------------------
  17      Total      10.9721         0.000     0.000 -0.000 -0.000       0.000  -0.000  0.000 -0.000

  18  103  6s         1.3508                  -0.000  0.000  0.000               0.000  0.000  0.000
  18  104  5dxy       1.9645                  -0.000 -0.000 -0.000              -0.000 -0.000 -0.000
  18  105  5dyz       1.8565                   0.000 -0.000 -0.000               0.000 -0.000 -0.000
  18  106  5dz2       1.9691                  -0.000 -0.000  0.000              -0.000  0.000  0.000
  18  107  5dxz       1.9577                   0.000  0.000 -0.000              -0.000  0.000 -0.000
  18  108  5dx2-y2    1.9417                   0.000  0.000  0.000               0.000  0.000 -0.000
----------------------------------------------------------------------------------------------------
  18      Total      11.0401         0.000    -0.000  0.000 -0.000       0.000  -0.000  0.000 -0.000

  19  109  6s         1.3166                  -0.000 -0.000 -0.000               0.000  0.000  0.000
  19  110  5dxy       1.9364                   0.000  0.000 -0.000               0.000  0.000 -0.000
  19  111  5dyz       1.9046                  -0.000 -0.000  0.000              -0.000  0.000  0.000
  19  112  5dz2       1.9759                   0.000  0.000 -0.000              -0.000 -0.000  0.000
  19  113  5dxz       1.9043                  -0.000 -0.000  0.000               0.000 -0.000  0.000
  19  114  5dx2-y2    1.9431                   0.000  0.000 -0.000               0.000 -0.000 -0.000
----------------------------------------------------------------------------------------------------
  19      Total      10.9809         0.000    -0.000 -0.000 -0.000       0.000  -0.000 -0.000 -0.000

  20  115  6s         1.3521                   0.000 -0.000  0.000               0.000  0.000  0.000
  20  116  5dxy       1.9639                   0.000  0.000 -0.000               0.000 -0.000 -0.000
  20  117  5dyz       1.8592                  -0.000 -0.000 -0.000               0.000 -0.000 -0.000
  20  118  5dz2       1.9692                   0.000  0.000  0.000              -0.000 -0.000  0.000
  20  119  5dxz       1.9555                  -0.000 -0.000 -0.000               0.000 -0.000 -0.000
  20  120  5dx2-y2    1.9417                  -0.000 -0.000  0.000               0.000  0.000 -0.000
----------------------------------------------------------------------------------------------------
  20      Total      11.0416         0.000     0.000 -0.000 -0.000       0.000   0.000 -0.000 -0.000

  21  121  6s         1.3042                  -0.000  0.000 -0.000               0.000  0.000  0.000
  21  122  5dxy       1.9372                  -0.000  0.000 -0.000              -0.000  0.000 -0.000
  21  123  5dyz       1.9061                   0.000 -0.000  0.000               0.000  0.000  0.000
  21  124  5dz2       1.9755                  -0.000  0.000 -0.000               0.000 -0.000  0.000
  21  125  5dxz       1.9064                   0.000  0.000  0.000              -0.000 -0.000  0.000
  21  126  5dx2-y2    1.9447                  -0.000  0.000 -0.000              -0.000  0.000 -0.000
----------------------------------------------------------------------------------------------------
  21      Total      10.9740         0.000    -0.000  0.000 -0.000       0.000   0.000 -0.000 -0.000

  22  127  6s         1.3505                   0.000 -0.000  0.000               0.000  0.000  0.000
  22  128  5dxy       1.9641                  -0.000 -0.000 -0.000              -0.000 -0.000 -0.000
  22  129  5dyz       1.9555                   0.000  0.000 -0.000               0.000 -0.000 -0.000
  22  130  5dz2       1.9691                  -0.000 -0.000  0.000               0.000  0.000  0.000
  22  131  5dxz       1.8611                   0.000  0.000 -0.000              -0.000  0.000 -0.000
  22  132  5dx2-y2    1.9415                   0.000  0.000  0.000              -0.000  0.000 -0.000
----------------------------------------------------------------------------------------------------
  22      Total      11.0419         0.000     0.000 -0.000 -0.000       0.000   0.000  0.000 -0.000

  23  133  6s         1.3689                   0.000  0.000  0.000               0.000  0.000  0.000
  23  134  5dxy       1.9621                  -0.000  0.000  0.000              -0.000 -0.000 -0.000
  23  135  5dyz       1.9576                  -0.000 -0.000 -0.000              -0.000 -0.000 -0.000
  23  136  5dz2       1.9677                  -0.000 -0.000  0.000              -0.000 -0.000  0.000
  23  137  5dxz       1.8582                   0.000 -0.000 -0.000              -0.000 -0.000 -0.000
  23  138  5dx2-y2    1.9394                  -0.000 -0.000  0.000               0.000 -0.000 -0.000
----------------------------------------------------------------------------------------------------
  23      Total      11.0539         0.000     0.000  0.000 -0.000       0.000  -0.000 -0.000 -0.000

  24  139  6s         1.1438                  -0.000  0.000 -0.000               0.000  0.000  0.000
  24  140  5dxy       1.9574                  -0.000  0.000  0.000               0.000 -0.000  0.000
  24  141  5dyz       1.9218                   0.000  0.000 -0.000               0.000 -0.000 -0.000
  24  142  5dz2       1.9526                  -0.000 -0.000  0.000               0.000  0.000  0.000
  24  143  5dxz       1.9270                   0.000  0.000 -0.000               0.000  0.000 -0.000
  24  144  5dx2-y2    1.9697                  -0.000  0.000  0.000              -0.000  0.000  0.000
----------------------------------------------------------------------------------------------------
  24      Total      10.8724         0.000    -0.000  0.000 -0.000       0.000   0.000  0.000 -0.000

  25  145  6s         1.3699                  -0.000 -0.000  0.000               0.000  0.000  0.000
  25  146  5dxy       1.9618                  -0.000  0.000  0.000              -0.000  0.000 -0.000
  25  147  5dyz       1.8550                   0.000  0.000 -0.000              -0.000  0.000 -0.000
  25  148  5dz2       1.9678                   0.000 -0.000  0.000              -0.000  0.000  0.000
  25  149  5dxz       1.9601                  -0.000  0.000 -0.000              -0.000  0.000 -0.000
  25  150  5dx2-y2    1.9389                   0.000  0.000  0.000               0.000  0.000 -0.000
----------------------------------------------------------------------------------------------------
  25      Total      11.0535         0.000    -0.000 -0.000 -0.000       0.000  -0.000  0.000 -0.000

  26  151  6s         1.3677                   0.000  0.000  0.000               0.000  0.000  0.000
  26  152  5dxy       1.9623                   0.000  0.000  0.000               0.000  0.000  0.000
  26  153  5dyz       1.8539                  -0.000 -0.000 -0.000               0.000  0.000 -0.000
  26  154  5dz2       1.9676                  -0.000  0.000  0.000               0.000 -0.000  0.000
  26  155  5dxz       1.9606                   0.000 -0.000 -0.000               0.000 -0.000 -0.000
  26  156  5dx2-y2    1.9395                  -0.000 -0.000  0.000               0.000  0.000  0.000
----------------------------------------------------------------------------------------------------
  26      Total      11.0518         0.000     0.000  0.000 -0.000       0.000   0.000 -0.000 -0.000

  27  157  6s         1.3701                  -0.000 -0.000  0.000               0.000  0.000  0.000
  27  158  5dxy       1.9621                  -0.000 -0.000  0.000              -0.000 -0.000  0.000
  27  159  5dyz       1.9588                   0.000 -0.000 -0.000               0.000 -0.000 -0.000
[...]
 115  861  2pz        0.0850                  -0.000 -0.000  0.000              -0.000 -0.000  0.000
 115  862  2px        0.1165                   0.000  0.000  0.000               0.000 -0.000 -0.000
 115  863  2Pdxy      0.0082                   0.000 -0.000 -0.000              -0.000  0.000 -0.000
 115  864  2Pdyz      0.0046                   0.000 -0.000 -0.000               0.000  0.000 -0.000
 115  865  2Pdz2      0.0072                   0.000 -0.000 -0.000               0.000 -0.000  0.000
 115  866  2Pdxz      0.0108                  -0.000  0.000  0.000              -0.000 -0.000 -0.000
 115  867  2Pdx2-y    0.0061                   0.000  0.000  0.000              -0.000 -0.000 -0.000
----------------------------------------------------------------------------------------------------
 115      Total       5.9667         0.000    -0.000 -0.000 -0.000       0.000   0.000  0.000  0.000

 125  945  2s         1.2688                  -0.000 -0.000 -0.000               0.000  0.000  0.000
 125  946  2s         0.3304                   0.000 -0.000  0.000               0.000  0.000  0.000
 125  947  2py        1.1637                  -0.000 -0.001  0.000              -0.000  0.000 -0.000
 125  948  2pz        1.6310                  -0.001  0.001  0.000              -0.000 -0.000  0.000
 125  949  2px        1.5697                   0.001 -0.000  0.000               0.000 -0.000 -0.000
 125  950  2py        0.1331                   0.000  0.001  0.000               0.000  0.000  0.000
 125  951  2pz       -0.0479                   0.001 -0.001 -0.000               0.000 -0.000  0.000
 125  952  2px       -0.0380                  -0.001  0.000  0.000               0.000 -0.000  0.000
 125  953  2Pdxy      0.0095                  -0.000 -0.000 -0.000              -0.000  0.000 -0.000
 125  954  2Pdyz      0.0075                   0.000 -0.000  0.000               0.000  0.000  0.000
 125  955  2Pdz2      0.0073                   0.000 -0.000 -0.000               0.000 -0.000  0.000
 125  956  2Pdxz      0.0025                  -0.000 -0.000 -0.000              -0.000 -0.000  0.000
 125  957  2Pdx2-y    0.0104                  -0.000 -0.000 -0.000              -0.000 -0.000 -0.000
----------------------------------------------------------------------------------------------------
 125      Total       6.0478         0.001     0.000 -0.000  0.000       0.000  -0.000 -0.000  0.000

 142 1078  2s         1.0486                   0.000  0.000 -0.000               0.000  0.000  0.000
 142 1079  2s         0.4299                  -0.000 -0.000  0.000               0.000  0.000  0.000
 142 1080  2py        1.6122                  -0.000 -0.000 -0.000               0.000  0.000  0.000
 142 1081  2pz        1.1237                   0.000 -0.000 -0.000               0.000 -0.000  0.000
 142 1082  2px        1.4414                  -0.001  0.000 -0.000               0.000 -0.000  0.000
 142 1083  2py        0.0542                   0.000  0.000  0.000               0.000  0.000 -0.000
 142 1084  2pz        0.1855                  -0.001 -0.000  0.000               0.000  0.000  0.000
 142 1085  2px        0.0552                   0.001  0.000  0.000               0.000  0.000 -0.000
 142 1086  2Pdxy      0.0084                   0.000  0.000 -0.000               0.000  0.000  0.000
 142 1087  2Pdyz      0.0150                   0.000  0.000 -0.000               0.000  0.000  0.000
 142 1088  2Pdz2      0.0137                  -0.000 -0.000 -0.000              -0.000  0.000  0.000
 142 1089  2Pdxz      0.0151                   0.000  0.000 -0.000               0.000  0.000  0.000
 142 1090  2Pdx2-y    0.0071                   0.000  0.000 -0.000               0.000 -0.000  0.000
----------------------------------------------------------------------------------------------------
 142      Total       6.0102         0.000     0.000 -0.000 -0.000       0.000   0.000 -0.000  0.000

----------------------------------------------------------------------------------------------------
 Sum               1546.0000         0.000    -0.000 -0.000 -0.000       0.000   0.000 -0.000 -0.000


coxmol: Writing XMOL coordinates into file em.xyz                                                              

siesta: Program's energy decomposition (eV):
siesta: Ebs     =    -10949.199302
siesta: Eions   =    132631.767549
siesta: Ena     =      3605.087328
siesta: Ekin    =     84758.906662
siesta: Enl     =    -53119.606444
siesta: Eso     =       -16.053702
siesta: Eldau   =         0.000000
siesta: DEna    =        33.673317
siesta: DUscf   =        44.802797
siesta: DUext   =         0.000000
siesta: Exc     =    -19955.158648
siesta: eta*DQ  =         0.000000
siesta: Emadel  =         0.000000
siesta: Emeta   =         0.000000
siesta: Emolmec =         0.000000
siesta: Ekinion =         0.000000
siesta: Eharris =   -117280.116239
siesta: Etot    =   -117280.116239
siesta: FreeEng =   -117280.223323

siesta: Final energy (eV):
siesta:  Band Struct. =  -10949.199302
siesta:       Kinetic =   84758.906662
siesta:       Hartree =  548222.844803
siesta:       Eldau   =       0.000000
siesta:       Eso     =     -16.053702
siesta:    Ext. field =       0.000000
siesta:   Exch.-corr. =  -19955.158648
siesta:  Ion-electron =-1166019.869588
siesta:       Ion-ion =  435729.214233
siesta:       Ekinion =       0.000000
siesta:         Total = -117280.116239
siesta:         Fermi =      -2.490990

siesta: Atomic forces (eV/Ang):
siesta:      1    0.293819    0.347654    0.206592
siesta:      2   -0.326033    0.346969    0.302402
siesta:      3   -0.288999   -0.313484    0.232337
siesta:      4    0.329980   -0.394945    0.315752
siesta:      5   -0.004188    0.522605    0.316887
siesta:      6    0.002876    0.001864   -0.723989
siesta:      7   -0.637219   -0.617893    0.014157
siesta:      8    0.591700   -0.545345    0.013154
siesta:      9   -0.573907   -0.012817    0.336823
siesta:     10    0.642034    0.596882    0.023529
siesta:     11    0.571614    0.013125    0.343022
siesta:     12   -0.600957    0.581383   -0.001088
siesta:     13   -0.021462   -0.522326    0.301383
siesta:     14    0.016306    0.918598   -0.118505
siesta:     15    0.011780    0.008802    0.035969
siesta:     16   -0.563152   -0.537437    0.055719
siesta:     17    0.535907   -0.481019    0.036399
siesta:     18   -0.976246   -0.013852   -0.074434
siesta:     19    0.556456    0.524509    0.037579
siesta:     20    0.949052   -0.002711   -0.093333
siesta:     21   -0.512985    0.514357    0.053450
siesta:     22   -0.001772   -0.935945   -0.104236
siesta:     23    0.008315    0.831411   -0.071103
siesta:     24    0.004257    0.006789   -0.032234
siesta:     25   -0.865312   -0.005816   -0.023909
siesta:     26    0.873783    0.013018   -0.031534
siesta:     27   -0.006677   -0.844768   -0.044964
siesta:     28   -0.546136   -0.495476    0.013739
siesta:     29    0.522118   -0.506992    0.000760
siesta:     30    0.527465    0.535831    0.011626
siesta:     31   -0.500336    0.471881    0.001326
siesta:     32    0.001543    0.806270    0.021613
siesta:     33   -0.002160   -0.002098   -0.022420
siesta:     34   -0.535637   -0.551784   -0.019221
siesta:     35    0.527656   -0.520447    0.009290
siesta:     36   -0.814627    0.010455    0.036838
siesta:     37    0.571984    0.517630    0.019208
siesta:     38    0.831736    0.010108    0.043746
siesta:     39   -0.551387    0.536482   -0.023382
siesta:     40   -0.012802   -0.791819   -0.014539
siesta:     41    0.022120    0.971640    0.017356
siesta:     42    0.016067   -0.000435    0.002591
siesta:     43   -0.515454   -0.546686    0.040010
siesta:     44    0.531873   -0.505795   -0.006335
siesta:     45   -0.994063   -0.025448    0.016552
siesta:     46    0.526869    0.508135    0.029549
siesta:     47    0.959170   -0.011624    0.093197
siesta:     48   -0.561484    0.544326    0.047628
siesta:     49    0.022590   -0.954289   -0.016888
siesta:     50   -0.068662    0.497853   -0.387882
siesta:     51    0.043259   -0.016151    0.414665
siesta:     52   -0.537108   -0.012848   -0.238020
siesta:     53    0.476103    0.029800   -0.328692
siesta:     54   -0.072090   -0.490201   -0.371728
siesta:     55    0.417802    0.504554    0.172051
siesta:     56   -0.012437   -0.382726    0.718290
siesta:     57   -0.171626   -0.083431   -0.280104
siesta:     58    0.450139   -0.437180    0.184930
siesta:     59   -2.323172   -1.323908   -6.538753
siesta:     60   -0.500449   -2.477142   -1.294519
siesta:     61    0.034694    1.519464    0.366134
siesta:     62   -1.343278    0.543489    1.765424
siesta:     63    0.864005    0.192389   -0.620580
siesta:     64    0.525549   -0.589474    0.242141
siesta:     65   -0.261120    0.570632   -0.727920
siesta:     66   -0.146086    1.016598   -0.608791
siesta:     67    0.245800   -0.242022   -0.610777
siesta:     68    0.120151    0.153760    0.669700
siesta:     69   -0.553606   -0.061534    0.365899
siesta:     70   -0.450855    0.612381   -1.361563
siesta:     71    0.280707   -0.036086    1.194099
siesta:     72    0.318371    0.610430    1.160853
siesta:     73    0.131393   -0.422535   -0.657073
siesta:     74   -0.307668   -0.739124   -0.633641
siesta:     75    0.372814    0.151372    0.509629
siesta:     76    1.106183    0.094038   -0.372966
siesta:     77   -0.311345    0.109704   -0.464377
siesta:     78   -0.078788   -0.434463    0.200750
siesta:     79   -0.041298    0.384379    0.347132
siesta:     80    0.336616    0.808796   -0.534843
siesta:     81   -0.069276   -0.280318    0.301685
siesta:     82    0.843505   -0.734535    0.634261
siesta:     83   -0.615610    0.098545   -0.454980
siesta:     84    0.109025   -0.640040    0.227944
siesta:     85   -0.456249    0.717750   -0.355751
siesta:     86   -0.500579   -0.897167   -0.718198
siesta:     87    0.194183    0.428735   -0.272043
siesta:     88   -0.353873    0.119862    0.344791
siesta:     89    0.494033   -0.189317    0.182338
siesta:     90   -0.094969    0.745131   -0.900106
siesta:     91   -0.152053   -0.754259    0.680479
siesta:     92   -0.079003   -0.748505    0.907653
siesta:     93   -0.106566    0.613672   -0.543156
siesta:     94   -0.246701   -0.121523   -0.527609
siesta:     95   -0.201163    0.134797    0.676807
siesta:     96   -1.062607    0.317269   -0.296280
siesta:     97    0.206053   -0.161354   -0.395651
siesta:     98    0.216135    0.386715    0.228482
siesta:     99   -0.150876   -0.453625    0.417208
siesta:    100   -0.066539   -0.190440   -0.680762
siesta:    101    0.001625   -0.007607    0.990246
siesta:    102   -0.600046    0.384660    0.818489
siesta:    103    0.354145   -0.006604   -0.604946
siesta:    104    0.037824   -0.658897   -0.734301
siesta:    105    0.040395    0.707959    0.948404
siesta:    106    0.042419    0.967815   -0.720515
siesta:    107   -0.186526   -0.392985   -0.372450
siesta:    108    0.445737   -0.028417    0.275297
siesta:    109   -0.388824    0.150249    0.398474
siesta:    110   -0.469284    0.045750   -0.545970
siesta:    111    0.119390    0.455390    0.564546
siesta:    112    0.542519    0.861849    0.511156
siesta:    113    0.048149   -0.729491   -0.359567
siesta:    114   -0.589169   -0.054076   -0.384513
siesta:    115    0.706156    0.058333    0.655172
siesta:    116    0.918722   -0.406077   -0.622266
siesta:    117   -0.387944    0.101450   -0.510596
siesta:    118   -0.055540   -0.319275    0.412299
siesta:    119    0.264445    0.540478    0.328749
siesta:    120   -0.193431    0.688669   -0.634084
siesta:    121    0.692427   -0.354316    0.338273
siesta:    122    0.902449   -0.103928    0.722855
siesta:    123   -0.889944   -0.029702   -0.237756
siesta:    124   -1.093927   -5.578529    2.359501
siesta:    125   -0.274170    3.227985    0.308457
siesta:    126   -1.140245   -0.289149    0.408806
siesta:    127    0.543000   -0.236984    0.423102
siesta:    128    0.247538    0.157257   -0.643824
siesta:    129    1.122371    0.168490   -0.111244
siesta:    130   -0.366422    0.208168   -0.283678
siesta:    131   -0.283108   -0.514385    0.399731
siesta:    132   -1.173707   -0.119071    0.130743
siesta:    133    0.463436   -0.381170    0.522399
siesta:    134    0.250030    0.341090   -0.349080
siesta:    135    1.343789   -0.129130   -0.003913
siesta:    136   -0.353381    0.409359   -0.304816
siesta:    137   -0.370337   -0.486736    0.278705
siesta:    138   -0.663547   -0.023851   -0.787787
siesta:    139   -0.276438    0.192502    0.248981
siesta:    140    0.793319   -1.412877    0.602539
siesta:    141    0.324550    0.196273   -0.273751
siesta:    142    2.733897    3.888227    4.348957
siesta:    143    0.232151    0.542811    0.495108
siesta:    144   -0.048476    0.365322   -1.220155
siesta:    145    0.028921   -0.167553    0.127498
siesta:    146    0.314173   -0.286975   -0.179008
siesta:    147   -0.184316   -0.102474    0.151124
siesta:    148   -0.061814   -0.427093   -0.566291
siesta:    149    0.103147    0.127405    0.242564
siesta:    150   -0.038537   -0.518454    0.327678
siesta:    151    0.539037    0.023745    0.233454
siesta:    152   -0.541550    0.000619    0.183817
siesta:    153    0.028183   -0.020331   -0.327270
siesta:    154   -0.042870    0.562123    0.270040
siesta:    155    0.033222   -0.960016    0.036829
siesta:    156   -0.571070    0.548572   -0.048011
siesta:    157    0.967059   -0.012050   -0.028770
siesta:    158    0.527954    0.523417   -0.013084
siesta:    159   -0.992713   -0.002457   -0.005471
siesta:    160    0.535549   -0.535397    0.001849
siesta:    161   -0.522125   -0.550404   -0.023437
siesta:    162    0.016361   -0.001526   -0.055278
siesta:    163    0.011529    0.988922    0.039191
siesta:    164   -0.010509   -0.813268   -0.023426
siesta:    165   -0.604934    0.601687    0.014879
siesta:    166    0.827210   -0.000812   -0.074069
siesta:    167    0.616163    0.569035   -0.014085
siesta:    168   -0.834998    0.010706   -0.067319
siesta:    169    0.591777   -0.582171   -0.013630
siesta:    170   -0.590915   -0.612492    0.003255
siesta:    171    0.002535   -0.000520    0.055602
siesta:    172   -0.010122    0.811640   -0.040054
siesta:    173   -0.506220    0.490654    0.008943
siesta:    174    0.536194    0.539850   -0.014682
siesta:    175    0.529415   -0.507707    0.004379
siesta:    176   -0.548830   -0.508863   -0.008274
siesta:    177   -0.008328   -0.870994    0.072317
siesta:    178    0.892714    0.007627    0.030979
siesta:    179   -0.887276   -0.008890    0.053282
siesta:    180   -0.000606    0.004790   -0.004391
siesta:    181    0.004847    0.850694    0.077043
siesta:    182    0.001079   -0.936755    0.093312
siesta:    183   -0.564063    0.551833   -0.043003
siesta:    184    0.969103   -0.000010    0.075829
siesta:    185    0.598576    0.577844   -0.040807
siesta:    186   -0.970544   -0.010087    0.062408
siesta:    187    0.579222   -0.540185   -0.030851
siesta:    188   -0.608835   -0.574840   -0.044337
siesta:    189    0.001384    0.003312   -0.018461
siesta:    190    0.017167    0.934034    0.102579
siesta:    191   -0.022374   -0.573841   -0.313291
siesta:    192   -0.643031    0.615396    0.009327
siesta:    193    0.626703    0.021524   -0.326763
siesta:    194    0.678786    0.632986   -0.012479
siesta:    195   -0.625491   -0.015962   -0.358415
siesta:    196    0.621575   -0.584849    0.002556
siesta:    197   -0.673550   -0.656277   -0.018180
siesta:    198    0.006419    0.003213    0.708580
siesta:    199    0.007424    0.579632   -0.308878
siesta:    200    0.288371   -0.346970   -0.341398
siesta:    201   -0.248684   -0.273781   -0.221646
siesta:    202   -0.277572    0.305888   -0.316384
siesta:    203    0.242929    0.298012   -0.240759
siesta: ----------------------------------------
siesta:    Tot    0.005807    0.019667   -0.022464

siesta: Stress tensor (static) (eV/Ang**3):
siesta:     0.000475   -0.000052   -0.000016
siesta:    -0.000052    0.000595    0.000031
siesta:    -0.000016    0.000031    0.001025

siesta: Cell volume =      72424.536209 Ang**3

siesta: Pressure (static):
siesta:                Solid            Molecule  Units
siesta:          -0.00000761         -0.00000009  Ry/Bohr**3
siesta:          -0.00069835         -0.00000845  eV/Ang**3
siesta:          -1.11889622         -0.01354015  kBar
(Free)E+ p_basis*V_orbitals  =     -117232.587443
(Free)Eharris+ p_basis*V_orbitals  =     -117232.587442
siesta: Total spin polarization (x,y,z) =    -0.000012   -0.000179   -0.000476
siesta: S , {S} =     0.000508   -0.000012   -0.000179   -0.000476

siesta: Electric dipole (a.u.)  =   -0.220274    7.050037    1.299022
siesta: Electric dipole (Debye) =   -0.559880   17.919420    3.301787

dhscf: Vacuum level (max, mean) =    1.873378    0.054678 eV

timer: Elapsed wall time (sec) =  344757.427
timer: CPU execution times (sec):

Routine            Calls   Time/call    Tot.time        %
siesta                 1  344696.934  344696.934   100.00
Setup                  1       0.302       0.302     0.00
bands                  1       0.000       0.000     0.00
KSV_init               1       0.000       0.000     0.00
IterGeom               1  344661.632  344661.632    99.99
state_init             1       2.178       2.178     0.00
hsparse                1       0.048       0.048     0.00
overlap                1       2.051       2.051     0.00
Setup_H0               1      50.771      50.771     0.01
naefs                  2       0.002       0.004     0.00
MolMec                 2       0.000       0.000     0.00
kinefsm                2       1.078       2.157     0.00
nlefsm                 2       6.094      12.188     0.00
spinorb                2       0.214       0.427     0.00
DHSCF_Init             1      36.774      36.774     0.01
DHSCF1                 1       0.349       0.349     0.00
INITMESH               1       0.000       0.000     0.00
DHSCF2                 1      36.424      36.424     0.01
REMESH                 1       5.369       5.369     0.00
REORD                687       0.200     137.441     0.04
PHION                  1      14.024      14.024     0.00
COMM_BSC             682       0.200     136.468     0.04
POISON                86       8.836     759.869     0.22
fft                  172       3.597     618.694     0.18
IterSCF               82    4201.660  344536.152    99.95
setup_H               83      33.645    2792.551     0.81
DHSCF                 85      33.801    2873.105     0.83
DHSCF3                85      33.366    2836.137     0.82
rhoofd                85       6.747     573.469     0.17
CellXC                85       3.617     307.422     0.09
cellXC                85       3.617     307.422     0.09
vmat                  84       5.420     455.283     0.13
writeHSX              84       0.076       6.385     0.00
compute_dm            82    4167.509  341735.718    99.14
diagon                82    4167.498  341734.845    99.14
cdiag               4428      54.162  239830.840    69.58
cdiag1              4428       4.732   20951.270     6.08
cdiag2              4428      12.443   55098.530    15.98
cdiag3              4428      32.235  142735.913    41.41
cdiag4              4428       4.753   21044.630     6.11
MIXER                 81       0.068       5.469     0.00
PostSCF                1      72.500      72.500     0.02
DHSCF4                 1      36.969      36.969     0.01
dfscf                  1      30.500      30.500     0.01
overfsm                1       0.062       0.062     0.00
state_analysis         1       0.000       0.000     0.00
siesta_move            1       0.000       0.000     0.00
Analysis               1      34.938      34.938     0.01
optical                1       0.000       0.000     0.00
  
>> End of run:  10-JAN-2024   9:45:00
Job completed
